<?xml version="1.0" encoding="UTF-8"?>

<!-- generated on 2026-06-22 17:34:06 by Eclipse SUMO sumo Version 1.18.0
<configuration xmlns:xsi="http://www.w3.org/2001/XMLSchema-instance" xsi:noNamespaceSchemaLocation="http://sumo.dlr.de/xsd/sumoConfiguration.xsd">

    <input>
        <net-file value="calgary_downtown.net.xml"/>
        <route-files value="output/calgary_aadt.rou.xml"/>
    </input>

    <output>
        <summary-output value="output/aadt_summary.xml"/>
        <tripinfo-output value="output/aadt_tripinfo.xml"/>
    </output>

    <time>
        <begin value="0"/>
        <end value="3600"/>
    </time>

    <processing>
        <ignore-route-errors value="true"/>
        <scale value="0.05"/>
        <time-to-teleport value="300"/>
    </processing>

    <report>
        <no-warnings value="true"/>
        <no-step-log value="true"/>
    </report>

</configuration>
-->

<tripinfos xmlns:xsi="http://www.w3.org/2001/XMLSchema-instance" xsi:noNamespaceSchemaLocation="http://sumo.dlr.de/xsd/tripinfo_file.xsd">
    <tripinfo id="aadt_23.0" depart="13.00" departLane="558320180#10_0" departPos="5.10" departSpeed="1.86" departDelay="0.00" arrival="61.00" arrivalLane="1427294341#0_0" arrivalPos="148.11" arrivalSpeed="14.13" duration="48.00" routeLength="645.80" waitingTime="0.00" waitingCount="0" stopTime="0.00" timeLoss="4.00" rerouteNo="1" devices="tripinfo_aadt_23.0 routing_aadt_23.0" vType="car" speedFactor="1.07" vaporized=""/>
    <tripinfo id="aadt_83.1" depart="9.00" departLane="1271398199#1_0" departPos="5.10" departSpeed="8.56" departDelay="0.00" arrival="100.00" arrivalLane="141116802#2_1" arrivalPos="35.38" arrivalSpeed="15.40" duration="91.00" routeLength="611.76" waitingTime="14.00" waitingCount="2" stopTime="0.00" timeLoss="49.52" rerouteNo="1" devices="tripinfo_aadt_83.1 routing_aadt_83.1" vType="car" speedFactor="1.13" vaporized=""/>
    <tripinfo id="aadt_106.0" depart="20.00" departLane="198248661#1_1" departPos="5.10" departSpeed="13.73" departDelay="0.00" arrival="101.00" arrivalLane="166790915#1_1" arrivalPos="83.57" arrivalSpeed="14.35" duration="81.00" routeLength="696.43" waitingTime="14.00" waitingCount="2" stopTime="0.00" timeLoss="31.25" rerouteNo="1" devices="tripinfo_aadt_106.0 routing_aadt_106.0" vType="car" speedFactor="1.04" vaporized=""/>
    <tripinfo id="aadt_83.0" depart="4.00" departLane="1271398199#1_0" departPos="5.10" departSpeed="4.72" departDelay="0.00" arrival="103.00" arrivalLane="141116802#2_0" arrivalPos="35.38" arrivalSpeed="10.19" duration="99.00" routeLength="611.76" waitingTime="19.00" waitingCount="2" stopTime="0.00" timeLoss="37.44" rerouteNo="1" devices="tripinfo_aadt_83.0 routing_aadt_83.0" vType="car" speedFactor="0.75" vaporized=""/>
    <tripinfo id="aadt_83.2" depart="40.00" departLane="1271398199#1_0" departPos="5.10" departSpeed="9.40" departDelay="0.00" arrival="103.00" arrivalLane="141116802#2_2" arrivalPos="35.38" arrivalSpeed="11.78" duration="63.00" routeLength="611.76" waitingTime="0.00" waitingCount="0" stopTime="0.00" timeLoss="9.25" rerouteNo="1" devices="tripinfo_aadt_83.2 routing_aadt_83.2" vType="car" speedFactor="0.87" vaporized=""/>
    <tripinfo id="aadt_234.0" depart="24.00" departLane="12100756#2_1" departPos="5.10" departSpeed="4.68" departDelay="0.00" arrival="108.00" arrivalLane="172360433#1_0" arrivalPos="196.45" arrivalSpeed="14.41" duration="84.00" routeLength="701.35" waitingTime="13.00" waitingCount="2" stopTime="0.00" timeLoss="35.12" rerouteNo="1" devices="tripinfo_aadt_234.0 routing_aadt_234.0" vType="car" speedFactor="1.07" vaporized=""/>
    <tripinfo id="aadt_54.0" depart="39.00" departLane="166187515#2_0" departPos="5.10" departSpeed="1.76" departDelay="0.00" arrival="114.00" arrivalLane="467193014#2_0" arrivalPos="16.36" arrivalSpeed="17.26" duration="75.00" routeLength="681.81" waitingTime="16.00" waitingCount="1" stopTime="0.00" timeLoss="34.30" rerouteNo="1" devices="tripinfo_aadt_54.0 routing_aadt_54.0" vType="car" speedFactor="1.25" vaporized=""/>
    <tripinfo id="aadt_219.0" depart="8.00" departLane="233756424#3_0" departPos="5.10" departSpeed="12.70" departDelay="0.00" arrival="119.00" arrivalLane="141116806#1_0" arrivalPos="21.59" arrivalSpeed="13.07" duration="111.00" routeLength="670.61" waitingTime="48.00" waitingCount="2" stopTime="0.00" timeLoss="62.35" rerouteNo="1" devices="tripinfo_aadt_219.0 routing_aadt_219.0" vType="car" speedFactor="1.03" vaporized=""/>
    <tripinfo id="aadt_199.0" depart="39.00" departLane="807915577#7_0" departPos="5.10" departSpeed="6.32" departDelay="0.00" arrival="121.00" arrivalLane="166789705#7_0" arrivalPos="0.20" arrivalSpeed="12.40" duration="82.00" routeLength="641.14" waitingTime="24.00" waitingCount="1" stopTime="0.00" timeLoss="33.07" rerouteNo="1" devices="tripinfo_aadt_199.0 routing_aadt_199.0" vType="car" speedFactor="0.98" vaporized=""/>
    <tripinfo id="aadt_23.2" depart="79.00" departLane="558320180#10_0" departPos="5.10" departSpeed="7.25" departDelay="0.00" arrival="132.00" arrivalLane="1427294341#0_0" arrivalPos="148.11" arrivalSpeed="12.60" duration="53.00" routeLength="645.80" waitingTime="0.00" waitingCount="0" stopTime="0.00" timeLoss="4.08" rerouteNo="1" devices="tripinfo_aadt_23.2 routing_aadt_23.2" vType="car" speedFactor="0.96" vaporized=""/>
    <tripinfo id="aadt_23.1" depart="60.00" departLane="558320180#10_0" departPos="5.10" departSpeed="4.33" departDelay="0.00" arrival="135.00" arrivalLane="1427294341#0_0" arrivalPos="148.11" arrivalSpeed="12.95" duration="75.00" routeLength="645.80" waitingTime="15.00" waitingCount="1" stopTime="0.00" timeLoss="24.89" rerouteNo="1" devices="tripinfo_aadt_23.1 routing_aadt_23.1" vType="car" speedFactor="0.94" vaporized=""/>
    <tripinfo id="aadt_259.0" depart="70.00" departLane="233756423#9_0" departPos="5.10" departSpeed="1.39" departDelay="0.00" arrival="140.00" arrivalLane="1272983205#1_0" arrivalPos="97.91" arrivalSpeed="15.19" duration="70.00" routeLength="760.76" waitingTime="8.00" waitingCount="1" stopTime="0.00" timeLoss="21.73" rerouteNo="1" devices="tripinfo_aadt_259.0 routing_aadt_259.0" vType="car" speedFactor="1.18" vaporized=""/>
    <tripinfo id="aadt_111.0" depart="81.00" departLane="166789703#0_0" departPos="5.10" departSpeed="2.91" departDelay="0.00" arrival="143.00" arrivalLane="1463656916#8_2" arrivalPos="81.32" arrivalSpeed="12.71" duration="62.00" routeLength="411.29" waitingTime="22.00" waitingCount="1" stopTime="0.00" timeLoss="34.36" rerouteNo="1" devices="tripinfo_aadt_111.0 routing_aadt_111.0" vType="car" speedFactor="1.11" vaporized=""/>
    <tripinfo id="aadt_175.0" depart="88.00" departLane="166789715#8_0" departPos="5.10" departSpeed="3.43" departDelay="0.00" arrival="147.00" arrivalLane="1269812659#1_0" arrivalPos="21.57" arrivalSpeed="11.43" duration="59.00" routeLength="244.69" waitingTime="32.00" waitingCount="1" stopTime="0.00" timeLoss="38.02" rerouteNo="1" devices="tripinfo_aadt_175.0 routing_aadt_175.0" vType="car" speedFactor="0.87" vaporized=""/>
    <tripinfo id="aadt_135.0" depart="56.00" departLane="940306671#1_0" departPos="5.10" departSpeed="1.66" departDelay="0.00" arrival="150.00" arrivalLane="1271398199#1_0" arrivalPos="77.92" arrivalSpeed="13.41" duration="94.00" routeLength="508.18" waitingTime="44.00" waitingCount="2" stopTime="0.00" timeLoss="56.00" rerouteNo="1" devices="tripinfo_aadt_135.0 routing_aadt_135.0" vType="car" speedFactor="1.05" vaporized=""/>
    <tripinfo id="aadt_316.0" depart="1.00" departLane="172360433#1_0" departPos="5.10" departSpeed="9.72" departDelay="0.00" arrival="151.00" arrivalLane="233756423#9_1" arrivalPos="94.98" arrivalSpeed="12.78" duration="150.00" routeLength="866.79" waitingTime="66.00" waitingCount="2" stopTime="0.00" timeLoss="80.80" rerouteNo="1" devices="tripinfo_aadt_316.0 routing_aadt_316.0" vType="car" speedFactor="0.94" vaporized=""/>
    <tripinfo id="aadt_25.0" depart="23.00" departLane="198464181#1_0" departPos="5.10" departSpeed="11.71" departDelay="0.00" arrival="151.00" arrivalLane="198464186#5_2" arrivalPos="77.01" arrivalSpeed="11.42" duration="128.00" routeLength="1028.66" waitingTime="28.00" waitingCount="2" stopTime="0.00" timeLoss="46.15" rerouteNo="1" devices="tripinfo_aadt_25.0 routing_aadt_25.0" vType="car" speedFactor="0.91" vaporized=""/>
    <tripinfo id="aadt_113.0" depart="43.00" departLane="166789703#0_0" departPos="5.10" departSpeed="7.03" departDelay="0.00" arrival="155.00" arrivalLane="1463656925#2_0" arrivalPos="35.73" arrivalSpeed="13.93" duration="112.00" routeLength="512.05" waitingTime="62.00" waitingCount="1" stopTime="0.00" timeLoss="75.19" rerouteNo="1" devices="tripinfo_aadt_113.0 routing_aadt_113.0" vType="car" speedFactor="1.05" vaporized=""/>
    <tripinfo id="aadt_113.1" depart="94.00" departLane="166789703#0_0" departPos="5.10" departSpeed="4.68" departDelay="0.00" arrival="158.00" arrivalLane="1463656925#2_0" arrivalPos="35.73" arrivalSpeed="13.86" duration="64.00" routeLength="512.05" waitingTime="11.00" waitingCount="1" stopTime="0.00" timeLoss="26.54" rerouteNo="1" devices="tripinfo_aadt_113.1 routing_aadt_113.1" vType="car" speedFactor="1.06" vaporized=""/>
    <tripinfo id="aadt_180.0" depart="47.00" departLane="32547688#1_0" departPos="5.10" departSpeed="3.81" departDelay="0.00" arrival="167.00" arrivalLane="140445175#2_0" arrivalPos="68.32" arrivalSpeed="13.10" duration="120.00" routeLength="1052.71" waitingTime="32.00" waitingCount="1" stopTime="0.00" timeLoss="42.70" rerouteNo="1" devices="tripinfo_aadt_180.0 routing_aadt_180.0" vType="car" speedFactor="0.99" vaporized=""/>
    <tripinfo id="aadt_141.0" depart="26.00" departLane="204156098#5_1" departPos="5.10" departSpeed="2.40" departDelay="0.00" arrival="173.00" arrivalLane="166187515#2_3" arrivalPos="78.61" arrivalSpeed="12.03" duration="147.00" routeLength="1115.67" waitingTime="43.00" waitingCount="1" stopTime="0.00" timeLoss="58.79" rerouteNo="1" devices="tripinfo_aadt_141.0 routing_aadt_141.0" vType="car" speedFactor="0.96" vaporized=""/>
    <tripinfo id="aadt_220.0" depart="37.00" departLane="233756424#3_0" departPos="5.10" departSpeed="4.42" departDelay="0.00" arrival="188.00" arrivalLane="807915578#1_2" arrivalPos="70.66" arrivalSpeed="14.70" duration="151.00" routeLength="1301.13" waitingTime="33.00" waitingCount="2" stopTime="0.00" timeLoss="63.10" rerouteNo="1" devices="tripinfo_aadt_220.0 routing_aadt_220.0" vType="car" speedFactor="1.07" vaporized=""/>
    <tripinfo id="aadt_215.0" depart="33.00" departLane="166789694#0_0" departPos="5.10" departSpeed="0.36" departDelay="1.00" arrival="190.00" arrivalLane="166790915#1_1" arrivalPos="83.57" arrivalSpeed="15.09" duration="157.00" routeLength="1096.13" waitingTime="56.00" waitingCount="3" stopTime="0.00" timeLoss="79.44" rerouteNo="1" devices="tripinfo_aadt_215.0 routing_aadt_215.0" vType="car" speedFactor="1.09" vaporized=""/>
    <tripinfo id="aadt_83.3" depart="107.00" departLane="1271398199#1_0" departPos="5.10" departSpeed="12.38" departDelay="0.00" arrival="191.00" arrivalLane="141116802#2_0" arrivalPos="35.38" arrivalSpeed="12.57" duration="84.00" routeLength="611.76" waitingTime="12.00" waitingCount="2" stopTime="0.00" timeLoss="36.53" rerouteNo="1" devices="tripinfo_aadt_83.3 routing_aadt_83.3" vType="car" speedFactor="0.98" vaporized=""/>
    <tripinfo id="aadt_247.0" depart="29.00" departLane="1463656925#2_0" departPos="5.10" departSpeed="4.83" departDelay="0.00" arrival="193.00" arrivalLane="-1268332928#5_0" arrivalPos="78.86" arrivalSpeed="8.24" duration="164.00" routeLength="569.69" waitingTime="89.00" waitingCount="4" stopTime="0.00" timeLoss="110.51" rerouteNo="1" devices="tripinfo_aadt_247.0 routing_aadt_247.0" vType="car" speedFactor="0.82" vaporized=""/>
    <tripinfo id="aadt_120.0" depart="10.00" departLane="209086946#1_0" departPos="5.10" departSpeed="4.95" departDelay="0.00" arrival="196.00" arrivalLane="179489270#1_1" arrivalPos="179.35" arrivalSpeed="15.63" duration="186.00" routeLength="1289.96" waitingTime="73.00" waitingCount="4" stopTime="0.00" timeLoss="101.60" rerouteNo="1" devices="tripinfo_aadt_120.0 routing_aadt_120.0" vType="car" speedFactor="1.18" vaporized=""/>
    <tripinfo id="aadt_94.0" depart="13.00" departLane="222970219#5_0" departPos="5.10" departSpeed="5.56" departDelay="0.00" arrival="196.00" arrivalLane="198464189#2_3" arrivalPos="1.60" arrivalSpeed="12.46" duration="183.00" routeLength="1066.01" waitingTime="75.00" waitingCount="4" stopTime="0.00" timeLoss="96.64" rerouteNo="1" devices="tripinfo_aadt_94.0 routing_aadt_94.0" vType="car" speedFactor="0.97" vaporized=""/>
    <tripinfo id="aadt_234.1" depart="56.00" departLane="12100756#2_0" departPos="5.10" departSpeed="12.11" departDelay="0.00" arrival="199.00" arrivalLane="172360433#1_0" arrivalPos="196.45" arrivalSpeed="13.18" duration="143.00" routeLength="701.35" waitingTime="74.00" waitingCount="3" stopTime="0.00" timeLoss="92.27" rerouteNo="1" devices="tripinfo_aadt_234.1 routing_aadt_234.1" vType="car" speedFactor="1.02" vaporized=""/>
    <tripinfo id="aadt_334.0" depart="159.00" departLane="196471986#0_0" departPos="5.10" departSpeed="0.00" departDelay="0.00" arrival="204.00" arrivalLane="198248661#1_1" arrivalPos="79.48" arrivalSpeed="11.01" duration="45.00" routeLength="397.14" waitingTime="0.00" waitingCount="0" stopTime="0.00" timeLoss="7.30" rerouteNo="1" devices="tripinfo_aadt_334.0 routing_aadt_334.0" vType="car" speedFactor="0.82" vaporized=""/>
    <tripinfo id="aadt_110.0" depart="17.00" departLane="166789707#4_0" departPos="5.10" departSpeed="7.79" departDelay="0.00" arrival="205.00" arrivalLane="32547688#1_1" arrivalPos="83.17" arrivalSpeed="11.79" duration="188.00" routeLength="1448.02" waitingTime="45.00" waitingCount="3" stopTime="0.00" timeLoss="73.27" rerouteNo="1" devices="tripinfo_aadt_110.0 routing_aadt_110.0" vType="car" speedFactor="0.94" vaporized=""/>
    <tripinfo id="aadt_54.1" depart="85.00" departLane="166187515#2_0" departPos="5.10" departSpeed="0.22" departDelay="0.00" arrival="205.00" arrivalLane="467193014#2_0" arrivalPos="16.36" arrivalSpeed="15.12" duration="120.00" routeLength="681.81" waitingTime="54.00" waitingCount="2" stopTime="0.00" timeLoss="76.89" rerouteNo="1" devices="tripinfo_aadt_54.1 routing_aadt_54.1" vType="car" speedFactor="1.18" vaporized=""/>
    <tripinfo id="aadt_273.0" depart="114.00" departLane="166789708#1_0" departPos="5.10" departSpeed="3.90" departDelay="0.00" arrival="205.00" arrivalLane="-459593649#1_1" arrivalPos="32.46" arrivalSpeed="5.35" duration="91.00" routeLength="680.94" waitingTime="24.00" waitingCount="2" stopTime="0.00" timeLoss="46.34" rerouteNo="1" devices="tripinfo_aadt_273.0 routing_aadt_273.0" vType="car" speedFactor="1.08" vaporized=""/>
    <tripinfo id="aadt_172.0" depart="4.00" departLane="198248650#2_0" departPos="5.10" departSpeed="7.81" departDelay="0.00" arrival="206.00" arrivalLane="198464189#2_3" arrivalPos="1.60" arrivalSpeed="13.45" duration="202.00" routeLength="1277.99" waitingTime="66.00" waitingCount="3" stopTime="0.00" timeLoss="104.81" rerouteNo="1" devices="tripinfo_aadt_172.0 routing_aadt_172.0" vType="car" speedFactor="0.99" vaporized=""/>
    <tripinfo id="aadt_128.0" depart="11.00" departLane="32548081#1_0" departPos="5.10" departSpeed="13.54" departDelay="0.00" arrival="206.00" arrivalLane="141116803#5_0" arrivalPos="146.20" arrivalSpeed="12.90" duration="195.00" routeLength="1295.54" waitingTime="68.00" waitingCount="4" stopTime="0.00" timeLoss="100.93" rerouteNo="1" devices="tripinfo_aadt_128.0 routing_aadt_128.0" vType="car" speedFactor="1.02" vaporized=""/>
    <tripinfo id="aadt_69.1" depart="41.00" departLane="200879002#4_0" departPos="5.10" departSpeed="9.67" departDelay="0.00" arrival="208.00" arrivalLane="511579309#1_0" arrivalPos="118.98" arrivalSpeed="12.51" duration="167.00" routeLength="1284.37" waitingTime="49.00" waitingCount="2" stopTime="0.00" timeLoss="67.50" rerouteNo="1" devices="tripinfo_aadt_69.1 routing_aadt_69.1" vType="car" speedFactor="0.98" vaporized=""/>
    <tripinfo id="aadt_328.0" depart="44.00" departLane="467193014#2_0" departPos="5.10" departSpeed="14.26" departDelay="0.00" arrival="209.00" arrivalLane="166789709#3_1" arrivalPos="44.05" arrivalSpeed="13.52" duration="165.00" routeLength="1667.47" waitingTime="35.00" waitingCount="2" stopTime="0.00" timeLoss="62.57" rerouteNo="1" devices="tripinfo_aadt_328.0 routing_aadt_328.0" vType="car" speedFactor="1.05" vaporized=""/>
    <tripinfo id="aadt_199.1" depart="90.00" departLane="807915577#7_0" departPos="5.10" departSpeed="6.57" departDelay="0.00" arrival="210.00" arrivalLane="166789705#7_0" arrivalPos="0.20" arrivalSpeed="13.12" duration="120.00" routeLength="641.14" waitingTime="57.00" waitingCount="2" stopTime="0.00" timeLoss="72.02" rerouteNo="1" devices="tripinfo_aadt_199.1 routing_aadt_199.1" vType="car" speedFactor="0.99" vaporized=""/>
    <tripinfo id="aadt_54.2" depart="126.00" departLane="166187515#2_0" departPos="5.10" departSpeed="10.45" departDelay="1.00" arrival="211.00" arrivalLane="467193014#2_0" arrivalPos="16.36" arrivalSpeed="13.61" duration="85.00" routeLength="681.81" waitingTime="19.00" waitingCount="1" stopTime="0.00" timeLoss="33.13" rerouteNo="1" devices="tripinfo_aadt_54.2 routing_aadt_54.2" vType="car" speedFactor="0.98" vaporized=""/>
    <tripinfo id="aadt_261.0" depart="15.00" departLane="24836134#2_0" departPos="5.10" departSpeed="9.85" departDelay="0.00" arrival="212.00" arrivalLane="204156098#5_3" arrivalPos="34.04" arrivalSpeed="11.79" duration="197.00" routeLength="1037.37" waitingTime="88.00" waitingCount="4" stopTime="0.00" timeLoss="112.16" rerouteNo="1" devices="tripinfo_aadt_261.0 routing_aadt_261.0" vType="car" speedFactor="0.89" vaporized=""/>
    <tripinfo id="aadt_69.0" depart="24.00" departLane="200879002#4_0" departPos="5.10" departSpeed="12.05" departDelay="0.00" arrival="212.00" arrivalLane="511579309#1_0" arrivalPos="118.98" arrivalSpeed="10.98" duration="188.00" routeLength="1284.37" waitingTime="56.00" waitingCount="2" stopTime="0.00" timeLoss="76.71" rerouteNo="1" devices="tripinfo_aadt_69.0 routing_aadt_69.0" vType="car" speedFactor="0.87" vaporized=""/>
    <tripinfo id="aadt_54.3" depart="135.00" departLane="166187515#2_0" departPos="5.10" departSpeed="16.31" departDelay="0.00" arrival="212.00" arrivalLane="467193014#2_0" arrivalPos="16.36" arrivalSpeed="15.43" duration="77.00" routeLength="681.81" waitingTime="17.00" waitingCount="1" stopTime="0.00" timeLoss="33.98" rerouteNo="1" devices="tripinfo_aadt_54.3 routing_aadt_54.3" vType="car" speedFactor="1.18" vaporized=""/>
    <tripinfo id="aadt_198.0" depart="99.00" departLane="807915577#7_1" departPos="5.10" departSpeed="8.54" departDelay="0.00" arrival="220.00" arrivalLane="203406169#2_0" arrivalPos="77.58" arrivalSpeed="14.54" duration="121.00" routeLength="806.96" waitingTime="54.00" waitingCount="2" stopTime="0.00" timeLoss="69.53" rerouteNo="1" devices="tripinfo_aadt_198.0 routing_aadt_198.0" vType="car" speedFactor="1.14" vaporized=""/>
    <tripinfo id="aadt_23.3" depart="158.00" departLane="558320180#10_0" departPos="5.10" departSpeed="9.52" departDelay="0.00" arrival="220.00" arrivalLane="1427294341#0_1" arrivalPos="148.11" arrivalSpeed="15.77" duration="62.00" routeLength="645.80" waitingTime="11.00" waitingCount="1" stopTime="0.00" timeLoss="22.10" rerouteNo="1" devices="tripinfo_aadt_23.3 routing_aadt_23.3" vType="car" speedFactor="1.19" vaporized=""/>
    <tripinfo id="aadt_255.0" depart="3.00" departLane="1272983205#1_0" departPos="5.10" departSpeed="9.31" departDelay="0.00" arrival="221.00" arrivalLane="198248662#10_0" arrivalPos="40.73" arrivalSpeed="13.01" duration="218.00" routeLength="692.27" waitingTime="148.00" waitingCount="3" stopTime="0.00" timeLoss="166.95" rerouteNo="1" devices="tripinfo_aadt_255.0 routing_aadt_255.0" vType="car" speedFactor="1.00" vaporized=""/>
    <tripinfo id="aadt_2.0" depart="0.00" departLane="558320182#7_0" departPos="5.10" departSpeed="13.12" departDelay="0.00" arrival="225.00" arrivalLane="32105663#9_2" arrivalPos="107.76" arrivalSpeed="14.42" duration="225.00" routeLength="2054.30" waitingTime="59.00" waitingCount="2" stopTime="0.00" timeLoss="81.82" rerouteNo="1" devices="tripinfo_aadt_2.0 routing_aadt_2.0" vType="car" speedFactor="1.06" vaporized=""/>
    <tripinfo id="aadt_200.0" depart="18.00" departLane="807915577#7_0" departPos="5.10" departSpeed="8.54" departDelay="0.00" arrival="228.00" arrivalLane="203404552#1_3" arrivalPos="116.44" arrivalSpeed="12.46" duration="210.00" routeLength="1090.80" waitingTime="88.00" waitingCount="5" stopTime="0.00" timeLoss="122.67" rerouteNo="1" devices="tripinfo_aadt_200.0 routing_aadt_200.0" vType="car" speedFactor="0.94" vaporized=""/>
    <tripinfo id="aadt_232.0" depart="55.00" departLane="141116806#1_0" departPos="5.10" departSpeed="12.64" departDelay="0.00" arrival="231.00" arrivalLane="166789695#2_0" arrivalPos="34.94" arrivalSpeed="13.31" duration="176.00" routeLength="948.94" waitingTime="81.00" waitingCount="4" stopTime="0.00" timeLoss="106.78" rerouteNo="1" devices="tripinfo_aadt_232.0 routing_aadt_232.0" vType="car" speedFactor="1.00" vaporized=""/>
    <tripinfo id="aadt_119.0" depart="45.00" departLane="196588540#3_0" departPos="5.10" departSpeed="2.24" departDelay="0.00" arrival="232.00" arrivalLane="204072399#1_0" arrivalPos="35.68" arrivalSpeed="13.77" duration="187.00" routeLength="1079.59" waitingTime="79.00" waitingCount="4" stopTime="0.00" timeLoss="110.34" rerouteNo="1" devices="tripinfo_aadt_119.0 routing_aadt_119.0" vType="car" speedFactor="1.05" vaporized=""/>
    <tripinfo id="aadt_191.0" depart="80.00" departLane="166789715#1_2" departPos="5.10" departSpeed="12.03" departDelay="0.00" arrival="234.00" arrivalLane="166789703#0_1" arrivalPos="7.55" arrivalSpeed="12.36" duration="154.00" routeLength="915.72" waitingTime="52.00" waitingCount="3" stopTime="0.00" timeLoss="81.95" rerouteNo="1" devices="tripinfo_aadt_191.0 routing_aadt_191.0" vType="car" speedFactor="0.95" vaporized=""/>
    <tripinfo id="aadt_235.0" depart="20.00" departLane="12100756#2_0" departPos="5.10" departSpeed="2.90" departDelay="0.00" arrival="237.00" arrivalLane="198464181#1_1" arrivalPos="79.21" arrivalSpeed="15.80" duration="217.00" routeLength="1480.09" waitingTime="79.00" waitingCount="5" stopTime="0.00" timeLoss="119.68" rerouteNo="1" devices="tripinfo_aadt_235.0 routing_aadt_235.0" vType="car" speedFactor="1.14" vaporized=""/>
    <tripinfo id="aadt_25.1" depart="72.00" departLane="198464181#1_0" departPos="5.10" departSpeed="9.61" departDelay="0.00" arrival="240.00" arrivalLane="198464186#5_0" arrivalPos="77.01" arrivalSpeed="12.80" duration="168.00" routeLength="1028.66" waitingTime="57.00" waitingCount="5" stopTime="0.00" timeLoss="87.69" rerouteNo="1" devices="tripinfo_aadt_25.1 routing_aadt_25.1" vType="car" speedFactor="0.92" vaporized=""/>
    <tripinfo id="aadt_30.0" depart="58.00" departLane="222970223#0_0" departPos="5.10" departSpeed="5.75" departDelay="0.00" arrival="243.00" arrivalLane="1271380733#0_2" arrivalPos="102.95" arrivalSpeed="11.41" duration="185.00" routeLength="1137.40" waitingTime="56.00" waitingCount="4" stopTime="0.00" timeLoss="84.53" rerouteNo="1" devices="tripinfo_aadt_30.0 routing_aadt_30.0" vType="car" speedFactor="0.85" vaporized=""/>
    <tripinfo id="aadt_108.0" depart="29.00" departLane="166789707#4_0" departPos="5.10" departSpeed="10.97" departDelay="0.00" arrival="244.00" arrivalLane="222970219#5_0" arrivalPos="86.24" arrivalSpeed="15.95" duration="215.00" routeLength="1485.19" waitingTime="84.00" waitingCount="3" stopTime="0.00" timeLoss="120.19" rerouteNo="1" devices="tripinfo_aadt_108.0 routing_aadt_108.0" vType="car" speedFactor="1.16" vaporized=""/>
    <tripinfo id="aadt_71.0" depart="54.00" departLane="200879002#4_0" departPos="5.10" departSpeed="9.44" departDelay="0.00" arrival="248.00" arrivalLane="196471986#0_1" arrivalPos="44.47" arrivalSpeed="14.27" duration="194.00" routeLength="627.56" waitingTime="128.00" waitingCount="3" stopTime="0.00" timeLoss="147.83" rerouteNo="1" devices="tripinfo_aadt_71.0 routing_aadt_71.0" vType="car" speedFactor="1.03" vaporized=""/>
    <tripinfo id="aadt_71.1" depart="67.00" departLane="200879002#4_0" departPos="5.10" departSpeed="4.33" departDelay="0.00" arrival="250.00" arrivalLane="196471986#0_2" arrivalPos="44.47" arrivalSpeed="16.64" duration="183.00" routeLength="627.56" waitingTime="111.00" waitingCount="3" stopTime="0.00" timeLoss="144.53" rerouteNo="1" devices="tripinfo_aadt_71.1 routing_aadt_71.1" vType="car" speedFactor="1.24" vaporized=""/>
    <tripinfo id="aadt_117.0" depart="75.00" departLane="196588540#3_0" departPos="5.10" departSpeed="12.51" departDelay="0.00" arrival="252.00" arrivalLane="140445175#2_0" arrivalPos="68.32" arrivalSpeed="15.40" duration="177.00" routeLength="821.62" waitingTime="104.00" waitingCount="3" stopTime="0.00" timeLoss="123.83" rerouteNo="1" devices="tripinfo_aadt_117.0 routing_aadt_117.0" vType="car" speedFactor="1.14" vaporized=""/>
    <tripinfo id="aadt_180.2" depart="135.00" departLane="32547688#1_1" departPos="5.10" departSpeed="1.37" departDelay="0.00" arrival="252.00" arrivalLane="140445175#2_2" arrivalPos="68.32" arrivalSpeed="15.41" duration="117.00" routeLength="1047.55" waitingTime="32.00" waitingCount="1" stopTime="0.00" timeLoss="53.22" rerouteNo="1" devices="tripinfo_aadt_180.2 routing_aadt_180.2" vType="car" speedFactor="1.20" vaporized=""/>
    <tripinfo id="aadt_85.0" depart="22.00" departLane="1423613729#3_0" departPos="5.10" departSpeed="3.56" departDelay="0.00" arrival="255.00" arrivalLane="196471986#0_1" arrivalPos="44.47" arrivalSpeed="12.61" duration="233.00" routeLength="1485.97" waitingTime="79.00" waitingCount="4" stopTime="0.00" timeLoss="113.87" rerouteNo="1" devices="tripinfo_aadt_85.0 routing_aadt_85.0" vType="car" speedFactor="0.92" vaporized=""/>
    <tripinfo id="aadt_178.0" depart="67.00" departLane="166790915#11_0" departPos="5.10" departSpeed="10.73" departDelay="0.00" arrival="257.00" arrivalLane="196471986#0_1" arrivalPos="44.47" arrivalSpeed="13.02" duration="190.00" routeLength="1166.87" waitingTime="65.00" waitingCount="3" stopTime="0.00" timeLoss="103.17" rerouteNo="1" devices="tripinfo_aadt_178.0 routing_aadt_178.0" vType="car" speedFactor="1.00" vaporized=""/>
    <tripinfo id="aadt_90.0" depart="50.00" departLane="52510292#1_0" departPos="5.10" departSpeed="11.54" departDelay="0.00" arrival="258.00" arrivalLane="1463656925#2_0" arrivalPos="35.73" arrivalSpeed="13.52" duration="208.00" routeLength="1262.20" waitingTime="87.00" waitingCount="3" stopTime="0.00" timeLoss="113.02" rerouteNo="1" devices="tripinfo_aadt_90.0 routing_aadt_90.0" vType="car" speedFactor="1.01" vaporized=""/>
    <tripinfo id="aadt_85.1" depart="90.00" departLane="1423613729#3_1" departPos="5.10" departSpeed="6.79" departDelay="0.00" arrival="258.00" arrivalLane="196471986#0_1" arrivalPos="44.47" arrivalSpeed="12.84" duration="168.00" routeLength="1491.12" waitingTime="26.00" waitingCount="2" stopTime="0.00" timeLoss="54.19" rerouteNo="1" devices="tripinfo_aadt_85.1 routing_aadt_85.1" vType="car" speedFactor="0.96" vaporized=""/>
    <tripinfo id="aadt_180.1" depart="111.00" departLane="32547688#1_0" departPos="5.10" departSpeed="0.74" departDelay="0.00" arrival="259.00" arrivalLane="140445175#2_1" arrivalPos="68.32" arrivalSpeed="11.98" duration="148.00" routeLength="1047.55" waitingTime="50.00" waitingCount="2" stopTime="0.00" timeLoss="66.94" rerouteNo="1" devices="tripinfo_aadt_180.1 routing_aadt_180.1" vType="car" speedFactor="0.94" vaporized=""/>
    <tripinfo id="aadt_141.1" depart="82.00" departLane="204156098#5_1" departPos="5.10" departSpeed="6.55" departDelay="0.00" arrival="262.00" arrivalLane="166187515#2_3" arrivalPos="78.61" arrivalSpeed="14.17" duration="180.00" routeLength="1115.67" waitingTime="77.00" waitingCount="3" stopTime="0.00" timeLoss="100.07" rerouteNo="1" devices="tripinfo_aadt_141.1 routing_aadt_141.1" vType="car" speedFactor="1.05" vaporized=""/>
    <tripinfo id="aadt_204.0" depart="128.00" departLane="1269812659#1_1" departPos="5.10" departSpeed="0.83" departDelay="0.00" arrival="263.00" arrivalLane="511579309#1_0" arrivalPos="118.98" arrivalSpeed="15.05" duration="135.00" routeLength="913.48" waitingTime="58.00" waitingCount="2" stopTime="0.00" timeLoss="76.09" rerouteNo="1" devices="tripinfo_aadt_204.0 routing_aadt_204.0" vType="car" speedFactor="1.14" vaporized=""/>
    <tripinfo id="aadt_117.1" depart="98.00" departLane="196588540#3_1" departPos="5.10" departSpeed="3.86" departDelay="0.00" arrival="265.00" arrivalLane="140445175#2_0" arrivalPos="68.32" arrivalSpeed="9.79" duration="167.00" routeLength="821.62" waitingTime="69.00" waitingCount="3" stopTime="0.00" timeLoss="89.06" rerouteNo="1" devices="tripinfo_aadt_117.1 routing_aadt_117.1" vType="car" speedFactor="0.78" vaporized=""/>
    <tripinfo id="aadt_141.2" depart="84.00" departLane="204156098#5_1" departPos="5.10" departSpeed="12.21" departDelay="0.00" arrival="266.00" arrivalLane="166187515#2_3" arrivalPos="78.61" arrivalSpeed="11.92" duration="182.00" routeLength="1115.67" waitingTime="70.00" waitingCount="2" stopTime="0.00" timeLoss="91.63" rerouteNo="1" devices="tripinfo_aadt_141.2 routing_aadt_141.2" vType="car" speedFactor="0.94" vaporized=""/>
    <tripinfo id="aadt_223.0" depart="9.00" departLane="130359884#1_0" departPos="5.10" departSpeed="3.12" departDelay="0.00" arrival="270.00" arrivalLane="357501306#1_3" arrivalPos="89.78" arrivalSpeed="12.57" duration="261.00" routeLength="1822.64" waitingTime="91.00" waitingCount="4" stopTime="0.00" timeLoss="127.96" rerouteNo="1" devices="tripinfo_aadt_223.0 routing_aadt_223.0" vType="car" speedFactor="0.95" vaporized=""/>