<?xml version="1.0" encoding="UTF-8"?>

<!-- generated on 2026-06-23 15:12:17 by Eclipse SUMO sumo Version 1.18.0
<configuration xmlns:xsi="http://www.w3.org/2001/XMLSchema-instance" xsi:noNamespaceSchemaLocation="http://sumo.dlr.de/xsd/sumoConfiguration.xsd">

    <input>
        <net-file value="/home/cochonhome/Documents/Calgary-SUMO/calgary_downtown.net.xml"/>
        <route-files value="/home/cochonhome/Documents/Calgary-SUMO/od/calgary_od_extended_calibrated.rou.xml"/>
    </input>

    <output>
        <tripinfo-output value="/home/cochonhome/Documents/Calgary-SUMO/output/tripinfo_balanced_60.xml"/>
    </output>

    <time>
        <begin value="0"/>
        <end value="3600"/>
    </time>

    <processing>
        <time-to-teleport value="300"/>
        <max-depart-delay value="600"/>
    </processing>

    <report>
        <no-warnings value="true"/>
        <no-step-log value="true"/>
    </report>

    <traci_server>
        <remote-port value="37543"/>
    </traci_server>

</configuration>
-->

<tripinfos xmlns:xsi="http://www.w3.org/2001/XMLSchema-instance" xsi:noNamespaceSchemaLocation="http://sumo.dlr.de/xsd/tripinfo_file.xsd">
    <tripinfo id="t7" depart="598.00" departLane="130359884#1_0" departPos="5.10" departSpeed="0.00" departDelay="0.30" arrival="779.00" arrivalLane="233756657#1_0" arrivalPos="37.32" arrivalSpeed="12.19" duration="181.00" routeLength="1057.18" waitingTime="83.00" waitingCount="2" stopTime="0.00" timeLoss="99.25" rerouteNo="0" devices="tripinfo_t7" vType="DEFAULT_VEHTYPE" speedFactor="0.94" vaporized=""/>
    <tripinfo id="t0" depart="590.00" departLane="1349096472#1_0" departPos="5.10" departSpeed="0.00" departDelay="0.00" arrival="902.00" arrivalLane="1423613729#3_0" arrivalPos="88.37" arrivalSpeed="13.94" duration="312.00" routeLength="1824.14" waitingTime="159.00" waitingCount="4" stopTime="0.00" timeLoss="193.96" rerouteNo="0" devices="tripinfo_t0" vType="DEFAULT_VEHTYPE" speedFactor="1.06" vaporized=""/>
    <tripinfo id="t5" depart="1880.00" departLane="166187515#2_0" departPos="5.10" departSpeed="0.00" departDelay="0.00" arrival="2163.00" arrivalLane="1423613729#3_0" arrivalPos="88.37" arrivalSpeed="13.50" duration="283.00" routeLength="1198.51" waitingTime="168.00" waitingCount="4" stopTime="0.00" timeLoss="196.80" rerouteNo="0" devices="tripinfo_t5" vType="DEFAULT_VEHTYPE" speedFactor="1.01" vaporized=""/>
    <tripinfo id="t14460" depart="3319.00" departLane="257636719-AddedOnRampEdge_0" departPos="5.10" departSpeed="0.00" departDelay="0.80" arrival="3385.00" arrivalLane="198464181#1_0" arrivalPos="79.21" arrivalSpeed="15.21" duration="66.00" routeLength="584.16" waitingTime="18.00" waitingCount="1" stopTime="0.00" timeLoss="29.32" rerouteNo="0" devices="tripinfo_t14460" vType="DEFAULT_VEHTYPE" speedFactor="1.15" vaporized=""/>
    <tripinfo id="t15188" depart="3315.00" departLane="1325528763#1_0" departPos="5.10" departSpeed="0.00" departDelay="0.70" arrival="3427.00" arrivalLane="222970218#0_0" arrivalPos="221.55" arrivalSpeed="22.88" duration="112.00" routeLength="1589.27" waitingTime="0.00" waitingCount="0" stopTime="0.00" timeLoss="17.52" rerouteNo="0" devices="tripinfo_t15188" vType="DEFAULT_VEHTYPE" speedFactor="1.05" vaporized=""/>
    <tripinfo id="t1557" depart="3325.00" departLane="1349096472#1_0" departPos="5.10" departSpeed="0.00" departDelay="0.70" arrival="3437.00" arrivalLane="196795517_0" arrivalPos="498.37" arrivalSpeed="13.45" duration="112.00" routeLength="1571.37" waitingTime="0.00" waitingCount="0" stopTime="0.00" timeLoss="10.41" rerouteNo="0" devices="tripinfo_t1557" vType="DEFAULT_VEHTYPE" speedFactor="1.04" vaporized=""/>
    <tripinfo id="t12098" depart="3356.00" departLane="254287943#2_0" departPos="5.10" departSpeed="0.00" departDelay="0.80" arrival="3444.00" arrivalLane="222970218#0_1" arrivalPos="221.55" arrivalSpeed="23.59" duration="88.00" routeLength="1392.80" waitingTime="0.00" waitingCount="0" stopTime="0.00" timeLoss="10.92" rerouteNo="0" devices="tripinfo_t12098" vType="DEFAULT_VEHTYPE" speedFactor="1.07" vaporized=""/>
    <tripinfo id="t12197" depart="3376.00" departLane="292896517_0" departPos="5.10" departSpeed="0.00" departDelay="0.80" arrival="3445.00" arrivalLane="1325528763#1_0" arrivalPos="41.03" arrivalSpeed="14.35" duration="69.00" routeLength="1033.76" waitingTime="0.00" waitingCount="0" stopTime="0.00" timeLoss="15.17" rerouteNo="0" devices="tripinfo_t12197" vType="DEFAULT_VEHTYPE" speedFactor="1.18" vaporized=""/>
    <tripinfo id="t15527" depart="3320.00" departLane="1325528763#1_0" departPos="5.10" departSpeed="0.00" departDelay="0.60" arrival="3449.00" arrivalLane="222970218#0_0" arrivalPos="221.55" arrivalSpeed="19.45" duration="129.00" routeLength="1589.27" waitingTime="0.00" waitingCount="0" stopTime="0.00" timeLoss="18.08" rerouteNo="0" devices="tripinfo_t15527" vType="DEFAULT_VEHTYPE" speedFactor="0.90" vaporized=""/>
    <tripinfo id="t18450" depart="3378.00" departLane="1427294341#7_0" departPos="5.10" departSpeed="0.00" departDelay="0.40" arrival="3449.00" arrivalLane="558320182#7_1" arrivalPos="18.41" arrivalSpeed="11.31" duration="71.00" routeLength="368.44" waitingTime="27.00" waitingCount="1" stopTime="0.00" timeLoss="37.92" rerouteNo="0" devices="tripinfo_t18450" vType="DEFAULT_VEHTYPE" speedFactor="0.82" vaporized=""/>
    <tripinfo id="t15052" depart="3326.00" departLane="1325528763#1_0" departPos="5.10" departSpeed="0.00" departDelay="2.20" arrival="3453.00" arrivalLane="222970218#0_0" arrivalPos="221.55" arrivalSpeed="21.82" duration="127.00" routeLength="1615.37" waitingTime="3.00" waitingCount="1" stopTime="0.00" timeLoss="24.54" rerouteNo="0" devices="tripinfo_t15052" vType="DEFAULT_VEHTYPE" speedFactor="0.99" vaporized=""/>
    <tripinfo id="t1046" depart="3336.00" departLane="248402400#1_0" departPos="5.10" departSpeed="0.00" departDelay="3.40" arrival="3456.00" arrivalLane="196795517_1" arrivalPos="498.37" arrivalSpeed="14.82" duration="120.00" routeLength="1676.55" waitingTime="0.00" waitingCount="0" stopTime="0.00" timeLoss="16.77" rerouteNo="0" devices="tripinfo_t1046" vType="DEFAULT_VEHTYPE" speedFactor="1.10" vaporized=""/>
    <tripinfo id="t17384" depart="3352.00" departLane="46788423#4_0" departPos="5.10" departSpeed="0.00" departDelay="0.00" arrival="3457.00" arrivalLane="558320190#0_0" arrivalPos="121.45" arrivalSpeed="15.81" duration="105.00" routeLength="925.32" waitingTime="33.00" waitingCount="1" stopTime="0.00" timeLoss="43.10" rerouteNo="0" devices="tripinfo_t17384" vType="DEFAULT_VEHTYPE" speedFactor="1.00" vaporized=""/>
    <tripinfo id="t11833" depart="3329.00" departLane="32548081#1_0" departPos="5.10" departSpeed="0.00" departDelay="0.60" arrival="3458.00" arrivalLane="135678688#1_3" arrivalPos="36.12" arrivalSpeed="11.69" duration="129.00" routeLength="699.03" waitingTime="49.00" waitingCount="3" stopTime="0.00" timeLoss="72.38" rerouteNo="0" devices="tripinfo_t11833" vType="DEFAULT_VEHTYPE" speedFactor="0.89" vaporized=""/>
    <tripinfo id="t14354" depart="3322.00" departLane="19165946_0" departPos="5.10" departSpeed="0.00" departDelay="2.50" arrival="3461.00" arrivalLane="52510292#1_2" arrivalPos="46.90" arrivalSpeed="13.19" duration="139.00" routeLength="1295.15" waitingTime="22.00" waitingCount="2" stopTime="0.00" timeLoss="47.72" rerouteNo="0" devices="tripinfo_t14354" vType="DEFAULT_VEHTYPE" speedFactor="1.03" vaporized=""/>
    <tripinfo id="t12853" depart="3343.00" departLane="198464181#1_0" departPos="5.10" departSpeed="0.00" departDelay="0.70" arrival="3468.00" arrivalLane="222970218#0_1" arrivalPos="221.55" arrivalSpeed="23.97" duration="125.00" routeLength="1869.09" waitingTime="0.00" waitingCount="0" stopTime="0.00" timeLoss="16.06" rerouteNo="0" devices="tripinfo_t12853" vType="DEFAULT_VEHTYPE" speedFactor="1.08" vaporized=""/>
    <tripinfo id="t12613" depart="3379.00" departLane="254287943#2_0" departPos="5.10" departSpeed="0.00" departDelay="0.70" arrival="3468.00" arrivalLane="222970218#0_0" arrivalPos="221.55" arrivalSpeed="21.56" duration="89.00" routeLength="1392.80" waitingTime="0.00" waitingCount="0" stopTime="0.00" timeLoss="7.94" rerouteNo="0" devices="tripinfo_t12613" vType="DEFAULT_VEHTYPE" speedFactor="1.02" vaporized=""/>
    <tripinfo id="t10911" depart="3323.00" departLane="166789695#2_0" departPos="5.10" departSpeed="0.00" departDelay="0.60" arrival="3471.00" arrivalLane="209086946#1_0" arrivalPos="31.73" arrivalSpeed="14.35" duration="148.00" routeLength="1139.36" waitingTime="52.00" waitingCount="2" stopTime="0.00" timeLoss="72.54" rerouteNo="0" devices="tripinfo_t10911" vType="DEFAULT_VEHTYPE" speedFactor="1.10" vaporized=""/>
    <tripinfo id="t12772" depart="3349.00" departLane="19165392#5_0" departPos="5.10" departSpeed="0.00" departDelay="0.40" arrival="3474.00" arrivalLane="222970218#0_1" arrivalPos="221.55" arrivalSpeed="23.32" duration="125.00" routeLength="1709.33" waitingTime="15.00" waitingCount="1" stopTime="0.00" timeLoss="29.64" rerouteNo="0" devices="tripinfo_t12772" vType="DEFAULT_VEHTYPE" speedFactor="1.10" vaporized=""/>
    <tripinfo id="t12648" depart="3328.00" departLane="222970223#0_0" departPos="5.10" departSpeed="0.00" departDelay="0.90" arrival="3475.00" arrivalLane="222970218#0_0" arrivalPos="221.55" arrivalSpeed="20.69" duration="147.00" routeLength="2031.16" waitingTime="0.00" waitingCount="0" stopTime="0.00" timeLoss="14.25" rerouteNo="0" devices="tripinfo_t12648" vType="DEFAULT_VEHTYPE" speedFactor="0.98" vaporized=""/>
    <tripinfo id="t12603" depart="3356.00" departLane="19165392#5_0" departPos="5.10" departSpeed="0.00" departDelay="0.60" arrival="3485.00" arrivalLane="222970218#0_0" arrivalPos="221.55" arrivalSpeed="21.45" duration="129.00" routeLength="1709.33" waitingTime="10.00" waitingCount="1" stopTime="0.00" timeLoss="24.26" rerouteNo="0" devices="tripinfo_t12603" vType="DEFAULT_VEHTYPE" speedFactor="1.00" vaporized=""/>
    <tripinfo id="t12604" depart="3359.00" departLane="196588540#3_0" departPos="5.10" departSpeed="0.00" departDelay="0.90" arrival="3486.00" arrivalLane="222970218#0_1" arrivalPos="221.55" arrivalSpeed="22.38" duration="127.00" routeLength="1888.21" waitingTime="0.00" waitingCount="0" stopTime="0.00" timeLoss="13.92" rerouteNo="0" devices="tripinfo_t12604" vType="DEFAULT_VEHTYPE" speedFactor="1.04" vaporized=""/>
    <tripinfo id="t15251" depart="3352.00" departLane="1325528763#1_0" departPos="5.10" departSpeed="0.00" departDelay="5.90" arrival="3487.00" arrivalLane="222970218#0_1" arrivalPos="221.55" arrivalSpeed="24.26" duration="135.00" routeLength="1615.37" waitingTime="13.00" waitingCount="1" stopTime="0.00" timeLoss="43.47" rerouteNo="0" devices="tripinfo_t15251" vType="DEFAULT_VEHTYPE" speedFactor="1.10" vaporized=""/>
    <tripinfo id="t48" depart="3363.00" departLane="32097429_0" departPos="5.10" departSpeed="0.00" departDelay="0.70" arrival="3491.00" arrivalLane="209086947#3_0" arrivalPos="90.39" arrivalSpeed="10.00" duration="128.00" routeLength="736.31" waitingTime="45.00" waitingCount="1" stopTime="0.00" timeLoss="56.76" rerouteNo="0" devices="tripinfo_t48" vType="DEFAULT_VEHTYPE" speedFactor="0.75" vaporized=""/>
    <tripinfo id="t15307" depart="3370.00" departLane="257636719-AddedOnRampEdge_0" departPos="5.10" departSpeed="0.00" departDelay="0.30" arrival="3492.00" arrivalLane="222970218#0_0" arrivalPos="221.55" arrivalSpeed="21.95" duration="122.00" routeLength="1665.13" waitingTime="2.00" waitingCount="1" stopTime="0.00" timeLoss="21.58" rerouteNo="0" devices="tripinfo_t15307" vType="DEFAULT_VEHTYPE" speedFactor="1.04" vaporized=""/>
    <tripinfo id="t14883" depart="3355.00" departLane="1325528763#1_0" departPos="5.10" departSpeed="0.00" departDelay="1.90" arrival="3494.00" arrivalLane="222970218#0_0" arrivalPos="221.55" arrivalSpeed="22.76" duration="139.00" routeLength="1615.37" waitingTime="11.00" waitingCount="1" stopTime="0.00" timeLoss="41.49" rerouteNo="0" devices="tripinfo_t14883" vType="DEFAULT_VEHTYPE" speedFactor="1.04" vaporized=""/>
    <tripinfo id="t6536" depart="3427.00" departLane="198464189#2_0" departPos="1.60" departSpeed="0.00" departDelay="0.90" arrival="3495.00" arrivalLane="19165392#5_0" arrivalPos="7.97" arrivalSpeed="14.24" duration="68.00" routeLength="577.87" waitingTime="13.00" waitingCount="1" stopTime="0.00" timeLoss="25.55" rerouteNo="0" devices="tripinfo_t6536" vType="DEFAULT_VEHTYPE" speedFactor="1.03" vaporized=""/>
    <tripinfo id="t1417" depart="3335.00" departLane="166187515#2_0" departPos="5.10" departSpeed="0.00" departDelay="0.00" arrival="3496.00" arrivalLane="198107934_0" arrivalPos="395.36" arrivalSpeed="16.62" duration="161.00" routeLength="1301.53" waitingTime="45.00" waitingCount="3" stopTime="0.00" timeLoss="78.51" rerouteNo="0" devices="tripinfo_t1417" vType="DEFAULT_VEHTYPE" speedFactor="1.06" vaporized=""/>
    <tripinfo id="t437" depart="3366.00" departLane="1349096472#1_0" departPos="5.10" departSpeed="0.00" departDelay="27.40" arrival="3498.00" arrivalLane="209086947#8_3" arrivalPos="4.26" arrivalSpeed="12.10" duration="132.00" routeLength="1081.39" waitingTime="32.00" waitingCount="1" stopTime="0.00" timeLoss="56.94" rerouteNo="0" devices="tripinfo_t437" vType="DEFAULT_VEHTYPE" speedFactor="0.95" vaporized=""/>
    <tripinfo id="t15041" depart="3381.00" departLane="1325528763#1_0" departPos="5.10" departSpeed="0.00" departDelay="1.40" arrival="3498.00" arrivalLane="222970218#0_0" arrivalPos="221.55" arrivalSpeed="21.79" duration="117.00" routeLength="1615.37" waitingTime="0.00" waitingCount="0" stopTime="0.00" timeLoss="19.01" rerouteNo="0" devices="tripinfo_t15041" vType="DEFAULT_VEHTYPE" speedFactor="1.03" vaporized=""/>
    <tripinfo id="t8723" depart="3353.00" departLane="19164989#2_0" departPos="5.10" departSpeed="0.00" departDelay="0.80" arrival="3499.00" arrivalLane="209086947#3_2" arrivalPos="90.39" arrivalSpeed="12.30" duration="146.00" routeLength="763.40" waitingTime="63.00" waitingCount="3" stopTime="0.00" timeLoss="87.38" rerouteNo="0" devices="tripinfo_t8723" vType="DEFAULT_VEHTYPE" speedFactor="0.97" vaporized=""/>
    <tripinfo id="t1554" depart="3372.00" departLane="1349096472#1_0" departPos="5.10" departSpeed="0.00" departDelay="26.90" arrival="3502.00" arrivalLane="196795517_0" arrivalPos="498.37" arrivalSpeed="12.00" duration="130.00" routeLength="1571.37" waitingTime="0.00" waitingCount="0" stopTime="0.00" timeLoss="11.88" rerouteNo="0" devices="tripinfo_t1554" vType="DEFAULT_VEHTYPE" speedFactor="0.90" vaporized=""/>
    <tripinfo id="t8470" depart="3334.00" departLane="209086946#1_0" departPos="5.10" departSpeed="0.00" departDelay="0.00" arrival="3505.00" arrivalLane="1272736250#1_1" arrivalPos="107.80" arrivalSpeed="13.86" duration="171.00" routeLength="1439.50" waitingTime="59.00" waitingCount="3" stopTime="0.00" timeLoss="86.36" rerouteNo="0" devices="tripinfo_t8470" vType="DEFAULT_VEHTYPE" speedFactor="1.07" vaporized=""/>
    <tripinfo id="t12169" depart="3321.00" departLane="198248661#1_0" departPos="5.10" departSpeed="0.00" departDelay="0.70" arrival="3506.00" arrivalLane="222970218#0_0" arrivalPos="221.55" arrivalSpeed="22.67" duration="185.00" routeLength="2134.06" waitingTime="30.00" waitingCount="2" stopTime="0.00" timeLoss="52.78" rerouteNo="0" devices="tripinfo_t12169" vType="DEFAULT_VEHTYPE" speedFactor="1.04" vaporized=""/>
    <tripinfo id="t1410" depart="3322.00" departLane="166187515#2_0" departPos="5.10" departSpeed="0.00" departDelay="0.40" arrival="3506.00" arrivalLane="198107934_0" arrivalPos="395.36" arrivalSpeed="14.31" duration="184.00" routeLength="1301.53" waitingTime="60.00" waitingCount="3" stopTime="0.00" timeLoss="85.16" rerouteNo="0" devices="tripinfo_t1410" vType="DEFAULT_VEHTYPE" speedFactor="0.88" vaporized=""/>
    <tripinfo id="t1163" depart="3391.00" departLane="1349096472#1_0" departPos="5.10" departSpeed="0.00" departDelay="0.00" arrival="3506.00" arrivalLane="196795517_0" arrivalPos="498.37" arrivalSpeed="12.86" duration="115.00" routeLength="1571.37" waitingTime="0.00" waitingCount="0" stopTime="0.00" timeLoss="10.53" rerouteNo="0" devices="tripinfo_t1163" vType="DEFAULT_VEHTYPE" speedFactor="1.01" vaporized=""/>
    <tripinfo id="t6815" depart="3317.00" departLane="166789707#4_0" departPos="5.10" departSpeed="0.00" departDelay="0.90" arrival="3508.00" arrivalLane="1325528763#1_0" arrivalPos="41.03" arrivalSpeed="7.80" duration="191.00" routeLength="1143.88" waitingTime="74.00" waitingCount="3" stopTime="0.00" timeLoss="106.26" rerouteNo="0" devices="tripinfo_t6815" vType="DEFAULT_VEHTYPE" speedFactor="1.01" vaporized=""/>
    <tripinfo id="t6669" depart="3392.00" departLane="254577639#1_0" departPos="5.10" departSpeed="0.00" departDelay="0.90" arrival="3510.00" arrivalLane="1325528763#1_0" arrivalPos="41.03" arrivalSpeed="10.81" duration="118.00" routeLength="932.04" waitingTime="24.00" waitingCount="2" stopTime="0.00" timeLoss="54.38" rerouteNo="0" devices="tripinfo_t6669" vType="DEFAULT_VEHTYPE" speedFactor="1.10" vaporized=""/>
    <tripinfo id="t19715" depart="3344.00" departLane="32105663#9_0" departPos="5.10" departSpeed="0.00" departDelay="2.40" arrival="3515.00" arrivalLane="-472484093_1" arrivalPos="91.63" arrivalSpeed="13.63" duration="171.00" routeLength="1908.62" waitingTime="20.00" waitingCount="1" stopTime="0.00" timeLoss="39.95" rerouteNo="0" devices="tripinfo_t19715" vType="DEFAULT_VEHTYPE" speedFactor="1.06" vaporized=""/>
    <tripinfo id="t16745" depart="3364.00" departLane="46788423#4_0" departPos="5.10" departSpeed="0.00" departDelay="2.90" arrival="3516.00" arrivalLane="558320182#7_2" arrivalPos="18.41" arrivalSpeed="13.44" duration="152.00" routeLength="1452.03" waitingTime="0.00" waitingCount="0" stopTime="0.00" timeLoss="19.16" rerouteNo="0" devices="tripinfo_t16745" vType="DEFAULT_VEHTYPE" speedFactor="0.98" vaporized=""/>
    <tripinfo id="t12855" depart="3423.00" departLane="254287943#2_0" departPos="5.10" departSpeed="0.00" departDelay="0.40" arrival="3517.00" arrivalLane="222970218#0_0" arrivalPos="221.55" arrivalSpeed="20.88" duration="94.00" routeLength="1392.80" waitingTime="0.00" waitingCount="0" stopTime="0.00" timeLoss="7.95" rerouteNo="0" devices="tripinfo_t12855" vType="DEFAULT_VEHTYPE" speedFactor="0.95" vaporized=""/>
    <tripinfo id="t1305" depart="3339.00" departLane="1272736250#1_0" departPos="5.10" departSpeed="0.00" departDelay="5.60" arrival="3520.00" arrivalLane="198107934_1" arrivalPos="395.36" arrivalSpeed="19.61" duration="181.00" routeLength="1660.63" waitingTime="48.00" waitingCount="2" stopTime="0.00" timeLoss="74.69" rerouteNo="0" devices="tripinfo_t1305" vType="DEFAULT_VEHTYPE" speedFactor="1.18" vaporized=""/>
    <tripinfo id="t7221" depart="3350.00" departLane="468730823#1_0" departPos="5.10" departSpeed="0.00" departDelay="0.10" arrival="3520.00" arrivalLane="222970218#0_0" arrivalPos="221.55" arrivalSpeed="22.26" duration="170.00" routeLength="1748.10" waitingTime="43.00" waitingCount="2" stopTime="0.00" timeLoss="65.29" rerouteNo="0" devices="tripinfo_t7221" vType="DEFAULT_VEHTYPE" speedFactor="1.03" vaporized=""/>
    <tripinfo id="t12085" depart="3370.00" departLane="200879002#4_0" departPos="5.10" departSpeed="0.00" departDelay="0.80" arrival="3522.00" arrivalLane="1325528763#1_0" arrivalPos="41.03" arrivalSpeed="14.26" duration="152.00" routeLength="990.12" waitingTime="58.00" waitingCount="2" stopTime="0.00" timeLoss="84.77" rerouteNo="0" devices="tripinfo_t12085" vType="DEFAULT_VEHTYPE" speedFactor="1.10" vaporized=""/>
    <tripinfo id="t10819" depart="3319.00" departLane="32000793#1_0" departPos="5.10" departSpeed="0.00" departDelay="0.30" arrival="3523.00" arrivalLane="209086947#8_3" arrivalPos="4.26" arrivalSpeed="13.30" duration="204.00" routeLength="968.07" waitingTime="100.00" waitingCount="4" stopTime="0.00" timeLoss="130.99" rerouteNo="0" devices="tripinfo_t10819" vType="DEFAULT_VEHTYPE" speedFactor="0.99" vaporized=""/>
    <tripinfo id="t15433" depart="3389.00" departLane="1325528763#1_0" departPos="5.10" departSpeed="0.00" departDelay="2.30" arrival="3524.00" arrivalLane="222970218#0_0" arrivalPos="221.55" arrivalSpeed="23.73" duration="135.00" routeLength="1615.37" waitingTime="16.00" waitingCount="1" stopTime="0.00" timeLoss="40.56" rerouteNo="0" devices="tripinfo_t15433" vType="DEFAULT_VEHTYPE" speedFactor="1.07" vaporized=""/>
    <tripinfo id="t8388" depart="3388.00" departLane="209086946#1_0" departPos="5.10" departSpeed="0.00" departDelay="0.60" arrival="3525.00" arrivalLane="1349096472#1_1" arrivalPos="165.26" arrivalSpeed="15.67" duration="137.00" routeLength="1214.72" waitingTime="49.00" waitingCount="2" stopTime="0.00" timeLoss="74.60" rerouteNo="0" devices="tripinfo_t8388" vType="DEFAULT_VEHTYPE" speedFactor="1.19" vaporized=""/>
    <tripinfo id="t14322" depart="3397.00" departLane="1325528763#1_0" departPos="5.10" departSpeed="0.00" departDelay="5.40" arrival="3526.00" arrivalLane="254287943#2_0" arrivalPos="100.51" arrivalSpeed="11.89" duration="129.00" routeLength="858.48" waitingTime="34.00" waitingCount="2" stopTime="0.00" timeLoss="58.31" rerouteNo="0" devices="tripinfo_t14322" vType="DEFAULT_VEHTYPE" speedFactor="0.92" vaporized=""/>
    <tripinfo id="t18492" depart="3394.00" departLane="558320180#10_0" departPos="5.10" departSpeed="0.00" departDelay="0.30" arrival="3528.00" arrivalLane="32105663#9_2" arrivalPos="107.76" arrivalSpeed="11.91" duration="134.00" routeLength="908.67" waitingTime="37.00" waitingCount="2" stopTime="0.00" timeLoss="55.97" rerouteNo="0" devices="tripinfo_t18492" vType="DEFAULT_VEHTYPE" speedFactor="0.88" vaporized=""/>
    <tripinfo id="t15073" depart="3400.00" departLane="1325528763#1_0" departPos="5.10" departSpeed="0.00" departDelay="3.60" arrival="3528.00" arrivalLane="222970218#0_0" arrivalPos="221.55" arrivalSpeed="22.22" duration="128.00" routeLength="1589.27" waitingTime="9.00" waitingCount="1" stopTime="0.00" timeLoss="32.29" rerouteNo="0" devices="tripinfo_t15073" vType="DEFAULT_VEHTYPE" speedFactor="1.04" vaporized=""/>
    <tripinfo id="t324" depart="3330.00" departLane="203406169#2_0" departPos="5.10" departSpeed="0.00" departDelay="0.60" arrival="3529.00" arrivalLane="1409499802#2_2" arrivalPos="44.20" arrivalSpeed="13.82" duration="199.00" routeLength="1142.39" waitingTime="78.00" waitingCount="4" stopTime="0.00" timeLoss="114.60" rerouteNo="0" devices="tripinfo_t324" vType="DEFAULT_VEHTYPE" speedFactor="1.01" vaporized=""/>
    <tripinfo id="t6502" depart="3334.00" departLane="1185630532#4_0" departPos="5.10" departSpeed="0.00" departDelay="0.10" arrival="3535.00" arrivalLane="254287943#2_0" arrivalPos="100.51" arrivalSpeed="12.91" duration="201.00" routeLength="867.15" waitingTime="105.00" waitingCount="4" stopTime="0.00" timeLoss="137.18" rerouteNo="0" devices="tripinfo_t6502" vType="DEFAULT_VEHTYPE" speedFactor="1.00" vaporized=""/>
    <tripinfo id="t1169" depart="3390.00" departLane="166187515#2_0" departPos="5.10" departSpeed="0.00" departDelay="1.90" arrival="3535.00" arrivalLane="209086946#1_3" arrivalPos="31.73" arrivalSpeed="12.58" duration="145.00" routeLength="497.77" waitingTime="82.00" waitingCount="3" stopTime="0.00" timeLoss="106.94" rerouteNo="0" devices="tripinfo_t1169" vType="DEFAULT_VEHTYPE" speedFactor="0.98" vaporized=""/>
    <tripinfo id="t14882" depart="3394.00" departLane="1325528763#1_0" departPos="5.10" departSpeed="0.00" departDelay="2.60" arrival="3535.00" arrivalLane="222970218#0_2" arrivalPos="221.55" arrivalSpeed="24.87" duration="141.00" routeLength="1615.37" waitingTime="20.00" waitingCount="2" stopTime="0.00" timeLoss="50.64" rerouteNo="0" devices="tripinfo_t14882" vType="DEFAULT_VEHTYPE" speedFactor="1.13" vaporized=""/>
    <tripinfo id="t15500" depart="3411.00" departLane="1325528763#1_0" departPos="5.10" departSpeed="0.00" departDelay="11.40" arrival="3537.00" arrivalLane="222970218#0_1" arrivalPos="221.55" arrivalSpeed="20.60" duration="126.00" routeLength="1589.27" waitingTime="0.00" waitingCount="0" stopTime="0.00" timeLoss="24.02" rerouteNo="0" devices="tripinfo_t15500" vType="DEFAULT_VEHTYPE" speedFactor="0.98" vaporized=""/>
    <tripinfo id="t12533" depart="3433.00" departLane="196550929#0_0" departPos="5.10" departSpeed="0.00" departDelay="0.50" arrival="3538.00" arrivalLane="222970218#0_1" arrivalPos="221.55" arrivalSpeed="21.90" duration="105.00" routeLength="1515.23" waitingTime="0.00" waitingCount="0" stopTime="0.00" timeLoss="13.20" rerouteNo="0" devices="tripinfo_t12533" vType="DEFAULT_VEHTYPE" speedFactor="1.00" vaporized=""/>
    <tripinfo id="t15451" depart="3386.00" departLane="1325528763#1_0" departPos="5.10" departSpeed="0.00" departDelay="0.40" arrival="3541.00" arrivalLane="222970218#0_0" arrivalPos="221.55" arrivalSpeed="18.21" duration="155.00" routeLength="1589.27" waitingTime="16.00" waitingCount="1" stopTime="0.00" timeLoss="37.09" rerouteNo="0" devices="tripinfo_t15451" vType="DEFAULT_VEHTYPE" speedFactor="0.85" vaporized=""/>
    <tripinfo id="t12444" depart="3336.00" departLane="200879002#4_0" departPos="5.10" departSpeed="0.00" departDelay="0.50" arrival="3544.00" arrivalLane="1427294341#7_1" arrivalPos="38.19" arrivalSpeed="11.70" duration="208.00" routeLength="2593.77" waitingTime="17.00" waitingCount="1" stopTime="0.00" timeLoss="45.10" rerouteNo="0" devices="tripinfo_t12444" vType="DEFAULT_VEHTYPE" speedFactor="1.15" vaporized=""/>
    <tripinfo id="t1516" depart="3369.00" departLane="32097429_0" departPos="5.10" departSpeed="0.00" departDelay="2.20" arrival="3546.00" arrivalLane="209086946#1_3" arrivalPos="31.73" arrivalSpeed="13.07" duration="177.00" routeLength="917.00" waitingTime="67.00" waitingCount="4" stopTime="0.00" timeLoss="105.04" rerouteNo="0" devices="tripinfo_t1516" vType="DEFAULT_VEHTYPE" speedFactor="0.95" vaporized=""/>
    <tripinfo id="t1174" depart="3353.00" departLane="248402400#1_0" departPos="5.10" departSpeed="0.00" departDelay="4.40" arrival="3548.00" arrivalLane="209086946#1_3" arrivalPos="31.73" arrivalSpeed="12.54" duration="195.00" routeLength="1228.58" waitingTime="58.00" waitingCount="4" stopTime="0.00" timeLoss="105.55" rerouteNo="0" devices="tripinfo_t1174" vType="DEFAULT_VEHTYPE" speedFactor="0.93" vaporized=""/>
    <tripinfo id="t15099" depart="3404.00" departLane="1325528763#1_0" departPos="5.10" departSpeed="0.00" departDelay="6.00" arrival="3548.00" arrivalLane="222970218#0_1" arrivalPos="221.55" arrivalSpeed="20.31" duration="144.00" routeLength="1615.37" waitingTime="12.00" waitingCount="2" stopTime="0.00" timeLoss="38.73" rerouteNo="0" devices="tripinfo_t15099" vType="DEFAULT_VEHTYPE" speedFactor="0.96" vaporized=""/>
    <tripinfo id="t15141" depart="3400.00" departLane="257636719-AddedOnRampEdge_0" departPos="5.10" departSpeed="0.00" departDelay="0.50" arrival="3549.00" arrivalLane="222970218#0_0" arrivalPos="221.55" arrivalSpeed="19.04" duration="149.00" routeLength="1665.13" waitingTime="7.00" waitingCount="2" stopTime="0.00" timeLoss="30.97" rerouteNo="0" devices="tripinfo_t15141" vType="DEFAULT_VEHTYPE" speedFactor="0.89" vaporized=""/>
    <tripinfo id="t15120" depart="3423.00" departLane="1325528763#1_0" departPos="5.10" departSpeed="0.00" departDelay="18.40" arrival="3551.00" arrivalLane="222970218#0_1" arrivalPos="221.55" arrivalSpeed="21.73" duration="128.00" routeLength="1615.37" waitingTime="1.00" waitingCount="1" stopTime="0.00" timeLoss="25.88" rerouteNo="0" devices="tripinfo_t15120" vType="DEFAULT_VEHTYPE" speedFactor="0.99" vaporized=""/>
    <tripinfo id="t15024" depart="3431.00" departLane="257636719-AddedOnRampEdge_0" departPos="5.10" departSpeed="0.00" departDelay="0.60" arrival="3551.00" arrivalLane="222970218#0_2" arrivalPos="221.55" arrivalSpeed="22.67" duration="120.00" routeLength="1665.13" waitingTime="0.00" waitingCount="0" stopTime="0.00" timeLoss="21.24" rerouteNo="0" devices="tripinfo_t15024" vType="DEFAULT_VEHTYPE" speedFactor="1.06" vaporized=""/>
    <tripinfo id="t1371" depart="3428.00" departLane="248402400#1_0" departPos="5.10" departSpeed="0.00" departDelay="24.70" arrival="3553.00" arrivalLane="196795517_0" arrivalPos="498.37" arrivalSpeed="14.19" duration="125.00" routeLength="1676.55" waitingTime="1.00" waitingCount="1" stopTime="0.00" timeLoss="14.22" rerouteNo="0" devices="tripinfo_t1371" vType="DEFAULT_VEHTYPE" speedFactor="1.02" vaporized=""/>
    <tripinfo id="t15264" depart="3420.00" departLane="257636719-AddedOnRampEdge_0" departPos="5.10" departSpeed="0.00" departDelay="0.50" arrival="3553.00" arrivalLane="222970218#0_0" arrivalPos="221.55" arrivalSpeed="18.74" duration="133.00" routeLength="1665.13" waitingTime="0.00" waitingCount="0" stopTime="0.00" timeLoss="15.11" rerouteNo="0" devices="tripinfo_t15264" vType="DEFAULT_VEHTYPE" speedFactor="0.89" vaporized=""/>
    <tripinfo id="t14924" depart="3330.00" departLane="19165946_0" departPos="5.10" departSpeed="0.00" departDelay="0.70" arrival="3555.00" arrivalLane="222970218#0_0" arrivalPos="221.55" arrivalSpeed="24.17" duration="225.00" routeLength="2745.10" waitingTime="27.00" waitingCount="2" stopTime="0.00" timeLoss="59.60" rerouteNo="0" devices="tripinfo_t14924" vType="DEFAULT_VEHTYPE" speedFactor="1.09" vaporized=""/>
    <tripinfo id="t18747" depart="3343.00" departLane="1427294341#7_0" departPos="5.10" departSpeed="0.00" departDelay="0.30" arrival="3556.00" arrivalLane="202223186#24_0" arrivalPos="38.23" arrivalSpeed="15.55" duration="213.00" routeLength="1565.79" waitingTime="95.00" waitingCount="2" stopTime="0.00" timeLoss="113.90" rerouteNo="0" devices="tripinfo_t18747" vType="DEFAULT_VEHTYPE" speedFactor="1.14" vaporized=""/>