<?xml version="1.0" encoding="UTF-8"?>

<!-- generated on 2026-06-24 12:06:48 by Eclipse SUMO sumo Version 1.18.0
<configuration xmlns:xsi="http://www.w3.org/2001/XMLSchema-instance" xsi:noNamespaceSchemaLocation="http://sumo.dlr.de/xsd/sumoConfiguration.xsd">

    <input>
        <net-file value="/home/cochonhome/Documents/Calgary-SUMO/calgary_downtown.net.xml"/>
        <route-files value="/home/cochonhome/Documents/Calgary-SUMO/od/calgary_od_extended_calibrated.rou.xml"/>
    </input>

    <output>
        <tripinfo-output value="/home/cochonhome/Documents/Calgary-SUMO/output/tripinfo_corridor_green_wave_ns_fast.xml"/>
    </output>

    <time>
        <begin value="0"/>
        <end value="3600"/>
    </time>

    <processing>
        <scale value="0.3"/>
        <time-to-teleport value="300"/>
        <max-depart-delay value="600"/>
    </processing>

    <report>
        <no-warnings value="true"/>
        <no-step-log value="true"/>
    </report>

    <traci_server>
        <remote-port value="32831"/>
    </traci_server>

</configuration>
-->

<tripinfos xmlns:xsi="http://www.w3.org/2001/XMLSchema-instance" xsi:noNamespaceSchemaLocation="http://sumo.dlr.de/xsd/tripinfo_file.xsd">
    <tripinfo id="t0" depart="590.00" departLane="1349096472#1_0" departPos="5.10" departSpeed="0.00" departDelay="0.00" arrival="992.00" arrivalLane="1423613729#3_0" arrivalPos="88.37" arrivalSpeed="13.94" duration="402.00" routeLength="1824.14" waitingTime="246.00" waitingCount="5" stopTime="0.00" timeLoss="283.86" rerouteNo="0" devices="tripinfo_t0" vType="DEFAULT_VEHTYPE" speedFactor="1.06" vaporized=""/>
    <tripinfo id="t12197" depart="3376.00" departLane="292896517_0" departPos="5.10" departSpeed="0.00" departDelay="0.80" arrival="3442.00" arrivalLane="1325528763#1_0" arrivalPos="41.03" arrivalSpeed="13.98" duration="66.00" routeLength="1033.76" waitingTime="0.00" waitingCount="0" stopTime="0.00" timeLoss="12.57" rerouteNo="0" devices="tripinfo_t12197" vType="DEFAULT_VEHTYPE" speedFactor="1.18" vaporized=""/>
    <tripinfo id="t18450" depart="3378.00" departLane="1427294341#7_0" departPos="5.10" departSpeed="0.00" departDelay="0.40" arrival="3447.00" arrivalLane="558320182#7_0" arrivalPos="18.41" arrivalSpeed="11.14" duration="69.00" routeLength="368.44" waitingTime="27.00" waitingCount="1" stopTime="0.00" timeLoss="35.93" rerouteNo="0" devices="tripinfo_t18450" vType="DEFAULT_VEHTYPE" speedFactor="0.82" vaporized=""/>
    <tripinfo id="t1046" depart="3335.00" departLane="248402400#1_0" departPos="5.10" departSpeed="0.00" departDelay="2.40" arrival="3453.00" arrivalLane="196795517_1" arrivalPos="498.37" arrivalSpeed="14.64" duration="118.00" routeLength="1676.55" waitingTime="0.00" waitingCount="0" stopTime="0.00" timeLoss="14.52" rerouteNo="0" devices="tripinfo_t1046" vType="DEFAULT_VEHTYPE" speedFactor="1.10" vaporized=""/>
    <tripinfo id="t14354" depart="3320.00" departLane="19165946_0" departPos="5.10" departSpeed="0.00" departDelay="0.50" arrival="3463.00" arrivalLane="52510292#1_0" arrivalPos="46.90" arrivalSpeed="13.10" duration="143.00" routeLength="1295.15" waitingTime="31.00" waitingCount="1" stopTime="0.00" timeLoss="51.99" rerouteNo="0" devices="tripinfo_t14354" vType="DEFAULT_VEHTYPE" speedFactor="1.03" vaporized=""/>
    <tripinfo id="t12613" depart="3379.00" departLane="254287943#2_0" departPos="5.10" departSpeed="0.00" departDelay="0.70" arrival="3467.00" arrivalLane="222970218#0_0" arrivalPos="221.55" arrivalSpeed="21.33" duration="88.00" routeLength="1392.80" waitingTime="0.00" waitingCount="0" stopTime="0.00" timeLoss="7.59" rerouteNo="0" devices="tripinfo_t12613" vType="DEFAULT_VEHTYPE" speedFactor="1.02" vaporized=""/>
    <tripinfo id="t15251" depart="3347.00" departLane="1325528763#1_0" departPos="5.10" departSpeed="0.00" departDelay="0.90" arrival="3469.00" arrivalLane="222970218#0_0" arrivalPos="221.55" arrivalSpeed="24.10" duration="122.00" routeLength="1615.37" waitingTime="6.00" waitingCount="1" stopTime="0.00" timeLoss="29.63" rerouteNo="0" devices="tripinfo_t15251" vType="DEFAULT_VEHTYPE" speedFactor="1.10" vaporized=""/>
    <tripinfo id="t48" depart="3363.00" departLane="32097429_0" departPos="5.10" departSpeed="0.00" departDelay="0.70" arrival="3478.00" arrivalLane="209086947#3_0" arrivalPos="90.39" arrivalSpeed="10.29" duration="115.00" routeLength="736.31" waitingTime="26.00" waitingCount="2" stopTime="0.00" timeLoss="44.01" rerouteNo="0" devices="tripinfo_t48" vType="DEFAULT_VEHTYPE" speedFactor="0.75" vaporized=""/>
    <tripinfo id="t11825" depart="3369.00" departLane="198464181#1_0" departPos="5.10" departSpeed="0.00" departDelay="2.50" arrival="3490.00" arrivalLane="1271380733#0_1" arrivalPos="102.95" arrivalSpeed="12.68" duration="121.00" routeLength="980.49" waitingTime="34.00" waitingCount="1" stopTime="0.00" timeLoss="47.20" rerouteNo="0" devices="tripinfo_t11825" vType="DEFAULT_VEHTYPE" speedFactor="0.99" vaporized=""/>
    <tripinfo id="t1417" depart="3335.00" departLane="166187515#2_0" departPos="5.10" departSpeed="0.00" departDelay="0.00" arrival="3494.00" arrivalLane="198107934_0" arrivalPos="395.36" arrivalSpeed="17.06" duration="159.00" routeLength="1301.53" waitingTime="47.00" waitingCount="3" stopTime="0.00" timeLoss="76.75" rerouteNo="0" devices="tripinfo_t1417" vType="DEFAULT_VEHTYPE" speedFactor="1.06" vaporized=""/>
    <tripinfo id="t15433" depart="3387.00" departLane="1325528763#1_0" departPos="5.10" departSpeed="0.00" departDelay="0.30" arrival="3497.00" arrivalLane="222970218#0_0" arrivalPos="221.55" arrivalSpeed="23.43" duration="110.00" routeLength="1589.27" waitingTime="0.00" waitingCount="0" stopTime="0.00" timeLoss="17.22" rerouteNo="0" devices="tripinfo_t15433" vType="DEFAULT_VEHTYPE" speedFactor="1.07" vaporized=""/>
    <tripinfo id="t8723" depart="3353.00" departLane="19164989#2_0" departPos="5.10" departSpeed="0.00" departDelay="0.80" arrival="3498.00" arrivalLane="209086947#3_2" arrivalPos="90.39" arrivalSpeed="13.18" duration="145.00" routeLength="763.40" waitingTime="65.00" waitingCount="2" stopTime="0.00" timeLoss="87.26" rerouteNo="0" devices="tripinfo_t8723" vType="DEFAULT_VEHTYPE" speedFactor="0.97" vaporized=""/>
    <tripinfo id="t6669" depart="3392.00" departLane="254577639#1_0" departPos="5.10" departSpeed="0.00" departDelay="0.90" arrival="3501.00" arrivalLane="1325528763#1_0" arrivalPos="41.03" arrivalSpeed="14.78" duration="109.00" routeLength="932.04" waitingTime="23.00" waitingCount="2" stopTime="0.00" timeLoss="44.95" rerouteNo="0" devices="tripinfo_t6669" vType="DEFAULT_VEHTYPE" speedFactor="1.10" vaporized=""/>
    <tripinfo id="t15073" depart="3397.00" departLane="1325528763#1_0" departPos="5.10" departSpeed="0.00" departDelay="0.60" arrival="3511.00" arrivalLane="222970218#0_0" arrivalPos="221.55" arrivalSpeed="22.96" duration="114.00" routeLength="1589.27" waitingTime="0.00" waitingCount="0" stopTime="0.00" timeLoss="18.09" rerouteNo="0" devices="tripinfo_t15073" vType="DEFAULT_VEHTYPE" speedFactor="1.04" vaporized=""/>
    <tripinfo id="t12853" depart="3343.00" departLane="198464181#1_0" departPos="5.10" departSpeed="0.00" departDelay="0.70" arrival="3512.00" arrivalLane="222970218#0_1" arrivalPos="221.55" arrivalSpeed="23.45" duration="169.00" routeLength="1869.09" waitingTime="41.00" waitingCount="1" stopTime="0.00" timeLoss="60.26" rerouteNo="0" devices="tripinfo_t12853" vType="DEFAULT_VEHTYPE" speedFactor="1.08" vaporized=""/>
    <tripinfo id="t19715" depart="3342.00" departLane="32105663#9_0" departPos="5.10" departSpeed="0.00" departDelay="0.40" arrival="3515.00" arrivalLane="-472484093_1" arrivalPos="91.63" arrivalSpeed="14.34" duration="173.00" routeLength="1908.62" waitingTime="23.00" waitingCount="1" stopTime="0.00" timeLoss="42.38" rerouteNo="0" devices="tripinfo_t19715" vType="DEFAULT_VEHTYPE" speedFactor="1.06" vaporized=""/>
    <tripinfo id="t12603" depart="3356.00" departLane="19165392#5_0" departPos="5.10" departSpeed="0.00" departDelay="0.60" arrival="3521.00" arrivalLane="222970218#0_0" arrivalPos="221.55" arrivalSpeed="22.03" duration="165.00" routeLength="1709.33" waitingTime="37.00" waitingCount="2" stopTime="0.00" timeLoss="59.98" rerouteNo="0" devices="tripinfo_t12603" vType="DEFAULT_VEHTYPE" speedFactor="1.00" vaporized=""/>
    <tripinfo id="t10819" depart="3319.00" departLane="32000793#1_0" departPos="5.10" departSpeed="0.00" departDelay="0.30" arrival="3523.00" arrivalLane="209086947#8_3" arrivalPos="4.26" arrivalSpeed="12.53" duration="204.00" routeLength="968.07" waitingTime="99.00" waitingCount="4" stopTime="0.00" timeLoss="131.63" rerouteNo="0" devices="tripinfo_t10819" vType="DEFAULT_VEHTYPE" speedFactor="0.99" vaporized=""/>
    <tripinfo id="t12723" depart="3399.00" departLane="198464181#1_0" departPos="5.10" departSpeed="0.00" departDelay="0.70" arrival="3525.00" arrivalLane="222970218#0_1" arrivalPos="221.55" arrivalSpeed="26.40" duration="126.00" routeLength="1869.09" waitingTime="8.00" waitingCount="1" stopTime="0.00" timeLoss="28.08" rerouteNo="0" devices="tripinfo_t12723" vType="DEFAULT_VEHTYPE" speedFactor="1.20" vaporized=""/>
    <tripinfo id="t15120" depart="3408.00" departLane="1325528763#1_0" departPos="5.10" departSpeed="0.00" departDelay="3.40" arrival="3527.00" arrivalLane="222970218#0_0" arrivalPos="221.55" arrivalSpeed="21.84" duration="119.00" routeLength="1589.27" waitingTime="0.00" waitingCount="0" stopTime="0.00" timeLoss="19.25" rerouteNo="0" devices="tripinfo_t15120" vType="DEFAULT_VEHTYPE" speedFactor="0.99" vaporized=""/>
    <tripinfo id="t15099" depart="3400.00" departLane="1325528763#1_0" departPos="5.10" departSpeed="0.00" departDelay="2.00" arrival="3531.00" arrivalLane="222970218#0_0" arrivalPos="221.55" arrivalSpeed="20.71" duration="131.00" routeLength="1615.37" waitingTime="5.00" waitingCount="1" stopTime="0.00" timeLoss="25.95" rerouteNo="0" devices="tripinfo_t15099" vType="DEFAULT_VEHTYPE" speedFactor="0.96" vaporized=""/>
    <tripinfo id="t8388" depart="3388.00" departLane="209086946#1_0" departPos="5.10" departSpeed="0.00" departDelay="0.60" arrival="3539.00" arrivalLane="1349096472#1_1" arrivalPos="165.26" arrivalSpeed="16.22" duration="151.00" routeLength="1214.72" waitingTime="65.00" waitingCount="2" stopTime="0.00" timeLoss="88.88" rerouteNo="0" devices="tripinfo_t8388" vType="DEFAULT_VEHTYPE" speedFactor="1.19" vaporized=""/>
    <tripinfo id="t6502" depart="3334.00" departLane="1185630532#4_0" departPos="5.10" departSpeed="0.00" departDelay="0.10" arrival="3540.00" arrivalLane="254287943#2_0" arrivalPos="100.51" arrivalSpeed="12.98" duration="206.00" routeLength="867.15" waitingTime="108.00" waitingCount="5" stopTime="0.00" timeLoss="142.66" rerouteNo="0" devices="tripinfo_t6502" vType="DEFAULT_VEHTYPE" speedFactor="1.00" vaporized=""/>
    <tripinfo id="t15406" depart="3431.00" departLane="1325528763#1_0" departPos="5.10" departSpeed="0.00" departDelay="0.80" arrival="3543.00" arrivalLane="222970218#0_0" arrivalPos="221.55" arrivalSpeed="22.38" duration="112.00" routeLength="1589.27" waitingTime="0.00" waitingCount="0" stopTime="0.00" timeLoss="19.13" rerouteNo="0" devices="tripinfo_t15406" vType="DEFAULT_VEHTYPE" speedFactor="1.06" vaporized=""/>
    <tripinfo id="t14967" depart="3439.00" departLane="1325528763#1_0" departPos="5.10" departSpeed="0.00" departDelay="0.70" arrival="3553.00" arrivalLane="222970218#0_0" arrivalPos="221.55" arrivalSpeed="22.55" duration="114.00" routeLength="1589.27" waitingTime="0.00" waitingCount="0" stopTime="0.00" timeLoss="17.72" rerouteNo="0" devices="tripinfo_t14967" vType="DEFAULT_VEHTYPE" speedFactor="1.03" vaporized=""/>
    <tripinfo id="t32122" depart="3323.00" departLane="25601866#3_0" departPos="5.10" departSpeed="0.00" departDelay="0.20" arrival="3562.00" arrivalLane="558320190#0_0" arrivalPos="121.45" arrivalSpeed="16.34" duration="239.00" routeLength="2487.74" waitingTime="43.00" waitingCount="1" stopTime="0.00" timeLoss="70.09" rerouteNo="0" devices="tripinfo_t32122" vType="DEFAULT_VEHTYPE" speedFactor="1.00" vaporized=""/>
    <tripinfo id="t8763" depart="3327.00" departLane="253752849#0_0" departPos="5.10" departSpeed="0.00" departDelay="1.40" arrival="3567.00" arrivalLane="203404552#1_3" arrivalPos="116.44" arrivalSpeed="13.14" duration="240.00" routeLength="1989.31" waitingTime="76.00" waitingCount="2" stopTime="0.00" timeLoss="106.80" rerouteNo="0" devices="tripinfo_t8763" vType="DEFAULT_VEHTYPE" speedFactor="1.03" vaporized=""/>
    <tripinfo id="t1" depart="3314.00" departLane="600592567#8_0" departPos="5.10" departSpeed="0.00" departDelay="0.70" arrival="3569.00" arrivalLane="141116818#4_0" arrivalPos="33.05" arrivalSpeed="13.54" duration="255.00" routeLength="1369.06" waitingTime="121.00" waitingCount="3" stopTime="0.00" timeLoss="157.53" rerouteNo="0" devices="tripinfo_t1" vType="DEFAULT_VEHTYPE" speedFactor="1.03" vaporized=""/>
    <tripinfo id="t32459" depart="3325.00" departLane="32107592#1_0" departPos="5.10" departSpeed="0.00" departDelay="0.80" arrival="3577.00" arrivalLane="558320182#7_0" arrivalPos="18.41" arrivalSpeed="11.84" duration="252.00" routeLength="2113.62" waitingTime="41.00" waitingCount="3" stopTime="0.00" timeLoss="72.84" rerouteNo="0" devices="tripinfo_t32459" vType="DEFAULT_VEHTYPE" speedFactor="0.91" vaporized=""/>
    <tripinfo id="t15013" depart="3464.00" departLane="257636719-AddedOnRampEdge_0" departPos="5.10" departSpeed="0.00" departDelay="0.40" arrival="3580.00" arrivalLane="222970218#0_0" arrivalPos="221.55" arrivalSpeed="22.97" duration="116.00" routeLength="1665.13" waitingTime="0.00" waitingCount="0" stopTime="0.00" timeLoss="16.71" rerouteNo="0" devices="tripinfo_t15013" vType="DEFAULT_VEHTYPE" speedFactor="1.05" vaporized=""/>
    <tripinfo id="t3978" depart="3331.00" departLane="1409499802#2_0" departPos="5.10" departSpeed="0.00" departDelay="0.00" arrival="3582.00" arrivalLane="-255627354#3_0" arrivalPos="19.37" arrivalSpeed="11.72" duration="251.00" routeLength="1441.05" waitingTime="118.00" waitingCount="3" stopTime="0.00" timeLoss="143.50" rerouteNo="0" devices="tripinfo_t3978" vType="DEFAULT_VEHTYPE" speedFactor="0.89" vaporized=""/>
    <tripinfo id="t14924" depart="3330.00" departLane="19165946_0" departPos="5.10" departSpeed="0.00" departDelay="0.70" arrival="3586.00" arrivalLane="222970218#0_0" arrivalPos="221.55" arrivalSpeed="23.28" duration="256.00" routeLength="2745.10" waitingTime="64.00" waitingCount="2" stopTime="0.00" timeLoss="90.80" rerouteNo="0" devices="tripinfo_t14924" vType="DEFAULT_VEHTYPE" speedFactor="1.09" vaporized=""/>
    <tripinfo id="t8693" depart="3351.00" departLane="196795517_0" departPos="5.10" departSpeed="0.00" departDelay="0.00" arrival="3588.00" arrivalLane="209086947#3_2" arrivalPos="90.39" arrivalSpeed="13.77" duration="237.00" routeLength="1977.16" waitingTime="67.00" waitingCount="2" stopTime="0.00" timeLoss="104.10" rerouteNo="0" devices="tripinfo_t8693" vType="DEFAULT_VEHTYPE" speedFactor="1.07" vaporized=""/>
    <tripinfo id="t4477" depart="3315.00" departLane="203404552#1_0" departPos="5.10" departSpeed="0.00" departDelay="0.00" arrival="3589.00" arrivalLane="468730823#1_1" arrivalPos="87.23" arrivalSpeed="13.18" duration="274.00" routeLength="1451.76" waitingTime="130.00" waitingCount="5" stopTime="0.00" timeLoss="167.46" rerouteNo="0" devices="tripinfo_t4477" vType="DEFAULT_VEHTYPE" speedFactor="0.99" vaporized=""/>
    <tripinfo id="t17175" depart="3324.00" departLane="46788423#4_0" departPos="5.10" departSpeed="0.00" departDelay="0.40" arrival="3590.00" arrivalLane="4814371#21_0" arrivalPos="39.94" arrivalSpeed="11.90" duration="266.00" routeLength="3083.91" waitingTime="18.00" waitingCount="1" stopTime="0.00" timeLoss="44.16" rerouteNo="0" devices="tripinfo_t17175" vType="DEFAULT_VEHTYPE" speedFactor="1.08" vaporized=""/>
    <tripinfo id="t32291" depart="3318.00" departLane="32107592#1_0" departPos="5.10" departSpeed="0.00" departDelay="0.00" arrival="3592.00" arrivalLane="46788423#4_0" arrivalPos="40.24" arrivalSpeed="15.29" duration="274.00" routeLength="2707.49" waitingTime="55.00" waitingCount="1" stopTime="0.00" timeLoss="87.61" rerouteNo="0" devices="tripinfo_t32291" vType="DEFAULT_VEHTYPE" speedFactor="1.18" vaporized=""/>
    <tripinfo id="t14369" depart="3502.00" departLane="1325528763#1_0" departPos="5.10" departSpeed="0.00" departDelay="6.50" arrival="3597.00" arrivalLane="1271398199#1_0" arrivalPos="77.92" arrivalSpeed="13.94" duration="95.00" routeLength="1205.05" waitingTime="1.00" waitingCount="1" stopTime="0.00" timeLoss="14.65" rerouteNo="0" devices="tripinfo_t14369" vType="DEFAULT_VEHTYPE" speedFactor="1.09" vaporized=""/>
    <tripinfo id="t1255" depart="3472.00" departLane="248402400#1_0" departPos="5.10" departSpeed="0.00" departDelay="2.70" arrival="3598.00" arrivalLane="196795517_0" arrivalPos="498.37" arrivalSpeed="12.98" duration="126.00" routeLength="1676.55" waitingTime="0.00" waitingCount="0" stopTime="0.00" timeLoss="12.60" rerouteNo="0" devices="tripinfo_t1255" vType="DEFAULT_VEHTYPE" speedFactor="1.00" vaporized=""/>
    <tripinfo id="t12072" depart="3395.00" departLane="222970219#5_0" departPos="5.10" departSpeed="0.00" departDelay="0.40" arrival="3599.00" arrivalLane="222970218#0_0" arrivalPos="221.55" arrivalSpeed="22.98" duration="204.00" routeLength="2527.82" waitingTime="19.00" waitingCount="1" stopTime="0.00" timeLoss="40.40" rerouteNo="0" devices="tripinfo_t12072" vType="DEFAULT_VEHTYPE" speedFactor="1.05" vaporized=""/>
</tripinfos>
