<?xml version="1.0" encoding="UTF-8"?>

<!-- generated on 2026-06-24 12:06:22 by Eclipse SUMO sumo Version 1.18.0
<configuration xmlns:xsi="http://www.w3.org/2001/XMLSchema-instance" xsi:noNamespaceSchemaLocation="http://sumo.dlr.de/xsd/sumoConfiguration.xsd">

    <input>
        <net-file value="/home/cochonhome/Documents/Calgary-SUMO/calgary_downtown.net.xml"/>
        <route-files value="/home/cochonhome/Documents/Calgary-SUMO/od/calgary_od_extended_calibrated.rou.xml"/>
    </input>

    <output>
        <tripinfo-output value="/home/cochonhome/Documents/Calgary-SUMO/output/tripinfo_corridor_green_wave_ew.xml"/>
    </output>

    <time>
        <begin value="0"/>
        <end value="3600"/>
    </time>

    <processing>
        <scale value="0.3"/>
        <time-to-teleport value="300"/>
        <max-depart-delay value="600"/>
    </processing>

    <report>
        <no-warnings value="true"/>
        <no-step-log value="true"/>
    </report>

    <traci_server>
        <remote-port value="59361"/>
    </traci_server>

</configuration>
-->

<tripinfos xmlns:xsi="http://www.w3.org/2001/XMLSchema-instance" xsi:noNamespaceSchemaLocation="http://sumo.dlr.de/xsd/tripinfo_file.xsd">
    <tripinfo id="t0" depart="590.00" departLane="1349096472#1_0" departPos="5.10" departSpeed="0.00" departDelay="0.00" arrival="902.00" arrivalLane="1423613729#3_0" arrivalPos="88.37" arrivalSpeed="13.94" duration="312.00" routeLength="1824.14" waitingTime="157.00" waitingCount="4" stopTime="0.00" timeLoss="193.86" rerouteNo="0" devices="tripinfo_t0" vType="DEFAULT_VEHTYPE" speedFactor="1.06" vaporized=""/>
    <tripinfo id="t12197" depart="3376.00" departLane="292896517_0" departPos="5.10" departSpeed="0.00" departDelay="0.80" arrival="3443.00" arrivalLane="1325528763#1_0" arrivalPos="41.03" arrivalSpeed="14.27" duration="67.00" routeLength="1033.76" waitingTime="0.00" waitingCount="0" stopTime="0.00" timeLoss="13.47" rerouteNo="0" devices="tripinfo_t12197" vType="DEFAULT_VEHTYPE" speedFactor="1.18" vaporized=""/>
    <tripinfo id="t18450" depart="3378.00" departLane="1427294341#7_0" departPos="5.10" departSpeed="0.00" departDelay="0.40" arrival="3446.00" arrivalLane="558320182#7_0" arrivalPos="18.41" arrivalSpeed="11.32" duration="68.00" routeLength="368.44" waitingTime="28.00" waitingCount="1" stopTime="0.00" timeLoss="35.33" rerouteNo="0" devices="tripinfo_t18450" vType="DEFAULT_VEHTYPE" speedFactor="0.82" vaporized=""/>
    <tripinfo id="t15251" depart="3347.00" departLane="1325528763#1_0" departPos="5.10" departSpeed="0.00" departDelay="0.90" arrival="3459.00" arrivalLane="222970218#0_0" arrivalPos="221.55" arrivalSpeed="24.28" duration="112.00" routeLength="1615.37" waitingTime="0.00" waitingCount="0" stopTime="0.00" timeLoss="19.25" rerouteNo="0" devices="tripinfo_t15251" vType="DEFAULT_VEHTYPE" speedFactor="1.10" vaporized=""/>
    <tripinfo id="t14354" depart="3320.00" departLane="19165946_0" departPos="5.10" departSpeed="0.00" departDelay="0.50" arrival="3463.00" arrivalLane="52510292#1_1" arrivalPos="46.90" arrivalSpeed="13.03" duration="143.00" routeLength="1295.15" waitingTime="31.00" waitingCount="1" stopTime="0.00" timeLoss="51.89" rerouteNo="0" devices="tripinfo_t14354" vType="DEFAULT_VEHTYPE" speedFactor="1.03" vaporized=""/>
    <tripinfo id="t12853" depart="3343.00" departLane="198464181#1_0" departPos="5.10" departSpeed="0.00" departDelay="0.70" arrival="3464.00" arrivalLane="222970218#0_0" arrivalPos="221.55" arrivalSpeed="22.82" duration="121.00" routeLength="1869.09" waitingTime="0.00" waitingCount="0" stopTime="0.00" timeLoss="12.97" rerouteNo="0" devices="tripinfo_t12853" vType="DEFAULT_VEHTYPE" speedFactor="1.08" vaporized=""/>
    <tripinfo id="t12613" depart="3379.00" departLane="254287943#2_0" departPos="5.10" departSpeed="0.00" departDelay="0.70" arrival="3469.00" arrivalLane="222970218#0_0" arrivalPos="221.55" arrivalSpeed="21.57" duration="90.00" routeLength="1392.80" waitingTime="0.00" waitingCount="0" stopTime="0.00" timeLoss="9.10" rerouteNo="0" devices="tripinfo_t12613" vType="DEFAULT_VEHTYPE" speedFactor="1.02" vaporized=""/>
    <tripinfo id="t1046" depart="3335.00" departLane="248402400#1_0" departPos="5.10" departSpeed="0.00" departDelay="2.40" arrival="3486.00" arrivalLane="196795517_1" arrivalPos="498.37" arrivalSpeed="14.56" duration="151.00" routeLength="1676.55" waitingTime="29.00" waitingCount="1" stopTime="0.00" timeLoss="47.59" rerouteNo="0" devices="tripinfo_t1046" vType="DEFAULT_VEHTYPE" speedFactor="1.10" vaporized=""/>
    <tripinfo id="t12603" depart="3356.00" departLane="19165392#5_0" departPos="5.10" departSpeed="0.00" departDelay="0.60" arrival="3487.00" arrivalLane="222970218#0_0" arrivalPos="221.55" arrivalSpeed="21.07" duration="131.00" routeLength="1709.33" waitingTime="11.00" waitingCount="1" stopTime="0.00" timeLoss="25.20" rerouteNo="0" devices="tripinfo_t12603" vType="DEFAULT_VEHTYPE" speedFactor="1.00" vaporized=""/>
    <tripinfo id="t1417" depart="3335.00" departLane="166187515#2_0" departPos="5.10" departSpeed="0.00" departDelay="0.00" arrival="3493.00" arrivalLane="198107934_0" arrivalPos="395.36" arrivalSpeed="17.16" duration="158.00" routeLength="1301.53" waitingTime="51.00" waitingCount="3" stopTime="0.00" timeLoss="75.94" rerouteNo="0" devices="tripinfo_t1417" vType="DEFAULT_VEHTYPE" speedFactor="1.06" vaporized=""/>
    <tripinfo id="t15433" depart="3387.00" departLane="1325528763#1_0" departPos="5.10" departSpeed="0.00" departDelay="0.30" arrival="3497.00" arrivalLane="222970218#0_0" arrivalPos="221.55" arrivalSpeed="23.73" duration="110.00" routeLength="1589.27" waitingTime="0.00" waitingCount="0" stopTime="0.00" timeLoss="16.50" rerouteNo="0" devices="tripinfo_t15433" vType="DEFAULT_VEHTYPE" speedFactor="1.07" vaporized=""/>
    <tripinfo id="t8723" depart="3353.00" departLane="19164989#2_0" departPos="5.10" departSpeed="0.00" departDelay="0.80" arrival="3499.00" arrivalLane="209086947#3_2" arrivalPos="90.39" arrivalSpeed="12.60" duration="146.00" routeLength="763.40" waitingTime="63.00" waitingCount="2" stopTime="0.00" timeLoss="87.64" rerouteNo="0" devices="tripinfo_t8723" vType="DEFAULT_VEHTYPE" speedFactor="0.97" vaporized=""/>
    <tripinfo id="t6669" depart="3392.00" departLane="254577639#1_0" departPos="5.10" departSpeed="0.00" departDelay="0.90" arrival="3504.00" arrivalLane="1325528763#1_0" arrivalPos="41.03" arrivalSpeed="13.56" duration="112.00" routeLength="932.04" waitingTime="24.00" waitingCount="2" stopTime="0.00" timeLoss="47.73" rerouteNo="0" devices="tripinfo_t6669" vType="DEFAULT_VEHTYPE" speedFactor="1.10" vaporized=""/>
    <tripinfo id="t15073" depart="3397.00" departLane="1325528763#1_0" departPos="5.10" departSpeed="0.00" departDelay="0.60" arrival="3509.00" arrivalLane="222970218#0_0" arrivalPos="221.55" arrivalSpeed="22.83" duration="112.00" routeLength="1589.27" waitingTime="0.00" waitingCount="0" stopTime="0.00" timeLoss="16.79" rerouteNo="0" devices="tripinfo_t15073" vType="DEFAULT_VEHTYPE" speedFactor="1.04" vaporized=""/>
    <tripinfo id="t19715" depart="3342.00" departLane="32105663#9_0" departPos="5.10" departSpeed="0.00" departDelay="0.40" arrival="3514.00" arrivalLane="-472484093_1" arrivalPos="91.63" arrivalSpeed="14.34" duration="172.00" routeLength="1908.62" waitingTime="21.00" waitingCount="1" stopTime="0.00" timeLoss="41.18" rerouteNo="0" devices="tripinfo_t19715" vType="DEFAULT_VEHTYPE" speedFactor="1.06" vaporized=""/>
    <tripinfo id="t15099" depart="3400.00" departLane="1325528763#1_0" departPos="5.10" departSpeed="0.00" departDelay="2.00" arrival="3521.00" arrivalLane="222970218#0_0" arrivalPos="221.55" arrivalSpeed="20.62" duration="121.00" routeLength="1589.27" waitingTime="0.00" waitingCount="0" stopTime="0.00" timeLoss="18.01" rerouteNo="0" devices="tripinfo_t15099" vType="DEFAULT_VEHTYPE" speedFactor="0.96" vaporized=""/>
    <tripinfo id="t10819" depart="3319.00" departLane="32000793#1_0" departPos="5.10" departSpeed="0.00" departDelay="0.30" arrival="3523.00" arrivalLane="209086947#8_3" arrivalPos="4.26" arrivalSpeed="12.82" duration="204.00" routeLength="968.07" waitingTime="102.00" waitingCount="4" stopTime="0.00" timeLoss="131.05" rerouteNo="0" devices="tripinfo_t10819" vType="DEFAULT_VEHTYPE" speedFactor="0.99" vaporized=""/>
    <tripinfo id="t15120" depart="3408.00" departLane="1325528763#1_0" departPos="5.10" departSpeed="0.00" departDelay="3.40" arrival="3527.00" arrivalLane="222970218#0_0" arrivalPos="221.55" arrivalSpeed="21.75" duration="119.00" routeLength="1589.27" waitingTime="0.00" waitingCount="0" stopTime="0.00" timeLoss="19.31" rerouteNo="0" devices="tripinfo_t15120" vType="DEFAULT_VEHTYPE" speedFactor="0.99" vaporized=""/>
    <tripinfo id="t12723" depart="3399.00" departLane="198464181#1_0" departPos="5.10" departSpeed="0.00" departDelay="0.70" arrival="3532.00" arrivalLane="222970218#0_0" arrivalPos="221.55" arrivalSpeed="26.05" duration="133.00" routeLength="1869.09" waitingTime="9.00" waitingCount="2" stopTime="0.00" timeLoss="34.36" rerouteNo="0" devices="tripinfo_t12723" vType="DEFAULT_VEHTYPE" speedFactor="1.20" vaporized=""/>
    <tripinfo id="t6502" depart="3334.00" departLane="1185630532#4_0" departPos="5.10" departSpeed="0.00" departDelay="0.10" arrival="3535.00" arrivalLane="254287943#2_0" arrivalPos="100.51" arrivalSpeed="13.66" duration="201.00" routeLength="867.15" waitingTime="106.00" waitingCount="5" stopTime="0.00" timeLoss="137.31" rerouteNo="0" devices="tripinfo_t6502" vType="DEFAULT_VEHTYPE" speedFactor="1.00" vaporized=""/>
    <tripinfo id="t14924" depart="3330.00" departLane="19165946_0" departPos="5.10" departSpeed="0.00" departDelay="0.70" arrival="3540.00" arrivalLane="222970218#0_0" arrivalPos="221.55" arrivalSpeed="23.07" duration="210.00" routeLength="2745.10" waitingTime="25.00" waitingCount="1" stopTime="0.00" timeLoss="44.77" rerouteNo="0" devices="tripinfo_t14924" vType="DEFAULT_VEHTYPE" speedFactor="1.09" vaporized=""/>
    <tripinfo id="t8388" depart="3388.00" departLane="209086946#1_0" departPos="5.10" departSpeed="0.00" departDelay="0.60" arrival="3540.00" arrivalLane="1349096472#1_1" arrivalPos="165.26" arrivalSpeed="15.70" duration="152.00" routeLength="1214.72" waitingTime="64.00" waitingCount="2" stopTime="0.00" timeLoss="89.39" rerouteNo="0" devices="tripinfo_t8388" vType="DEFAULT_VEHTYPE" speedFactor="1.19" vaporized=""/>
    <tripinfo id="t15406" depart="3431.00" departLane="1325528763#1_0" departPos="5.10" departSpeed="0.00" departDelay="0.80" arrival="3548.00" arrivalLane="222970218#0_0" arrivalPos="221.55" arrivalSpeed="23.33" duration="117.00" routeLength="1615.37" waitingTime="3.00" waitingCount="1" stopTime="0.00" timeLoss="22.31" rerouteNo="0" devices="tripinfo_t15406" vType="DEFAULT_VEHTYPE" speedFactor="1.06" vaporized=""/>
    <tripinfo id="t14967" depart="3440.00" departLane="1325528763#1_0" departPos="5.10" departSpeed="0.00" departDelay="1.70" arrival="3555.00" arrivalLane="222970218#0_0" arrivalPos="221.55" arrivalSpeed="21.87" duration="115.00" routeLength="1589.27" waitingTime="0.00" waitingCount="0" stopTime="0.00" timeLoss="17.86" rerouteNo="0" devices="tripinfo_t14967" vType="DEFAULT_VEHTYPE" speedFactor="1.03" vaporized=""/>
    <tripinfo id="t32122" depart="3323.00" departLane="25601866#3_0" departPos="5.10" departSpeed="0.00" departDelay="0.20" arrival="3561.00" arrivalLane="558320190#0_0" arrivalPos="121.45" arrivalSpeed="15.48" duration="238.00" routeLength="2487.74" waitingTime="44.00" waitingCount="1" stopTime="0.00" timeLoss="69.80" rerouteNo="0" devices="tripinfo_t32122" vType="DEFAULT_VEHTYPE" speedFactor="1.00" vaporized=""/>
    <tripinfo id="t8763" depart="3326.00" departLane="253752849#0_0" departPos="5.10" departSpeed="0.00" departDelay="0.40" arrival="3566.00" arrivalLane="203404552#1_3" arrivalPos="116.44" arrivalSpeed="13.82" duration="240.00" routeLength="1989.31" waitingTime="75.00" waitingCount="2" stopTime="0.00" timeLoss="106.68" rerouteNo="0" devices="tripinfo_t8763" vType="DEFAULT_VEHTYPE" speedFactor="1.03" vaporized=""/>
    <tripinfo id="t1" depart="3314.00" departLane="600592567#8_0" departPos="5.10" departSpeed="0.00" departDelay="0.70" arrival="3568.00" arrivalLane="141116818#4_0" arrivalPos="33.05" arrivalSpeed="13.14" duration="254.00" routeLength="1369.06" waitingTime="126.00" waitingCount="4" stopTime="0.00" timeLoss="157.11" rerouteNo="0" devices="tripinfo_t1" vType="DEFAULT_VEHTYPE" speedFactor="1.03" vaporized=""/>
    <tripinfo id="t48" depart="3363.00" departLane="32097429_0" departPos="5.10" departSpeed="0.00" departDelay="0.70" arrival="3568.00" arrivalLane="209086947#3_0" arrivalPos="90.39" arrivalSpeed="10.36" duration="205.00" routeLength="736.31" waitingTime="118.00" waitingCount="2" stopTime="0.00" timeLoss="134.12" rerouteNo="0" devices="tripinfo_t48" vType="DEFAULT_VEHTYPE" speedFactor="0.75" vaporized=""/>
    <tripinfo id="t11825" depart="3369.00" departLane="198464181#1_0" departPos="5.10" departSpeed="0.00" departDelay="2.50" arrival="3571.00" arrivalLane="1271380733#0_1" arrivalPos="102.95" arrivalSpeed="12.66" duration="202.00" routeLength="980.49" waitingTime="100.00" waitingCount="4" stopTime="0.00" timeLoss="128.35" rerouteNo="0" devices="tripinfo_t11825" vType="DEFAULT_VEHTYPE" speedFactor="0.99" vaporized=""/>
    <tripinfo id="t32459" depart="3325.00" departLane="32107592#1_0" departPos="5.10" departSpeed="0.00" departDelay="0.80" arrival="3578.00" arrivalLane="558320182#7_0" arrivalPos="18.41" arrivalSpeed="9.92" duration="253.00" routeLength="2113.62" waitingTime="39.00" waitingCount="2" stopTime="0.00" timeLoss="74.84" rerouteNo="0" devices="tripinfo_t32459" vType="DEFAULT_VEHTYPE" speedFactor="0.91" vaporized=""/>
    <tripinfo id="t15013" depart="3464.00" departLane="257636719-AddedOnRampEdge_0" departPos="5.10" departSpeed="0.00" departDelay="0.40" arrival="3578.00" arrivalLane="222970218#0_0" arrivalPos="221.55" arrivalSpeed="22.22" duration="114.00" routeLength="1665.13" waitingTime="0.00" waitingCount="0" stopTime="0.00" timeLoss="14.45" rerouteNo="0" devices="tripinfo_t15013" vType="DEFAULT_VEHTYPE" speedFactor="1.05" vaporized=""/>
    <tripinfo id="t3978" depart="3331.00" departLane="1409499802#2_0" departPos="5.10" departSpeed="0.00" departDelay="0.00" arrival="3583.00" arrivalLane="-255627354#3_0" arrivalPos="19.37" arrivalSpeed="11.70" duration="252.00" routeLength="1441.05" waitingTime="117.00" waitingCount="3" stopTime="0.00" timeLoss="143.69" rerouteNo="0" devices="tripinfo_t3978" vType="DEFAULT_VEHTYPE" speedFactor="0.89" vaporized=""/>
    <tripinfo id="t8693" depart="3351.00" departLane="196795517_0" departPos="5.10" departSpeed="0.00" departDelay="0.00" arrival="3587.00" arrivalLane="209086947#3_2" arrivalPos="90.39" arrivalSpeed="14.35" duration="236.00" routeLength="1977.16" waitingTime="64.00" waitingCount="2" stopTime="0.00" timeLoss="104.19" rerouteNo="0" devices="tripinfo_t8693" vType="DEFAULT_VEHTYPE" speedFactor="1.07" vaporized=""/>
    <tripinfo id="t14369" depart="3496.00" departLane="1325528763#1_0" departPos="5.10" departSpeed="0.00" departDelay="0.50" arrival="3589.00" arrivalLane="1271398199#1_0" arrivalPos="77.92" arrivalSpeed="13.94" duration="93.00" routeLength="1205.05" waitingTime="0.00" waitingCount="0" stopTime="0.00" timeLoss="13.34" rerouteNo="0" devices="tripinfo_t14369" vType="DEFAULT_VEHTYPE" speedFactor="1.09" vaporized=""/>
    <tripinfo id="t4477" depart="3315.00" departLane="203404552#1_0" departPos="5.10" departSpeed="0.00" departDelay="0.00" arrival="3590.00" arrivalLane="468730823#1_1" arrivalPos="87.23" arrivalSpeed="13.71" duration="275.00" routeLength="1451.76" waitingTime="130.00" waitingCount="5" stopTime="0.00" timeLoss="167.88" rerouteNo="0" devices="tripinfo_t4477" vType="DEFAULT_VEHTYPE" speedFactor="0.99" vaporized=""/>
    <tripinfo id="t17175" depart="3324.00" departLane="46788423#4_0" departPos="5.10" departSpeed="0.00" departDelay="0.40" arrival="3590.00" arrivalLane="4814371#21_0" arrivalPos="39.94" arrivalSpeed="11.86" duration="266.00" routeLength="3083.91" waitingTime="17.00" waitingCount="1" stopTime="0.00" timeLoss="44.70" rerouteNo="0" devices="tripinfo_t17175" vType="DEFAULT_VEHTYPE" speedFactor="1.08" vaporized=""/>
    <tripinfo id="t32291" depart="3318.00" departLane="32107592#1_0" departPos="5.10" departSpeed="0.00" departDelay="0.00" arrival="3594.00" arrivalLane="46788423#4_0" arrivalPos="40.24" arrivalSpeed="15.81" duration="276.00" routeLength="2707.49" waitingTime="53.00" waitingCount="1" stopTime="0.00" timeLoss="88.81" rerouteNo="0" devices="tripinfo_t32291" vType="DEFAULT_VEHTYPE" speedFactor="1.18" vaporized=""/>
</tripinfos>
