<?xml version="1.0" encoding="UTF-8"?>

<!-- generated on 2026-06-22 16:44:56 by Eclipse SUMO sumo Version 1.18.0
<configuration xmlns:xsi="http://www.w3.org/2001/XMLSchema-instance" xsi:noNamespaceSchemaLocation="http://sumo.dlr.de/xsd/sumoConfiguration.xsd">

    <input>
        <net-file value="calgary_downtown.net.xml"/>
        <route-files value="output/calgary_downtown.rou.xml"/>
    </input>

    <output>
        <summary-output value="output/summary.xml"/>
        <tripinfo-output value="output/tripinfo.xml"/>
    </output>

    <time>
        <begin value="0"/>
        <end value="3600"/>
    </time>

    <processing>
        <time-to-teleport value="-1"/>
    </processing>

    <report>
        <no-step-log value="true"/>
    </report>

</configuration>
-->

<tripinfos xmlns:xsi="http://www.w3.org/2001/XMLSchema-instance" xsi:noNamespaceSchemaLocation="http://sumo.dlr.de/xsd/tripinfo_file.xsd">
    <tripinfo id="0" depart="0.00" departLane="202223190#1_0" departPos="5.10" departSpeed="0.00" departDelay="0.00" arrival="20.00" arrivalLane="-1309555328#2_0" arrivalPos="34.19" arrivalSpeed="11.75" duration="20.00" routeLength="200.30" waitingTime="0.00" waitingCount="0" stopTime="0.00" timeLoss="5.18" rerouteNo="0" devices="tripinfo_0" vType="DEFAULT_VEHTYPE" speedFactor="1.06" vaporized=""/>
    <tripinfo id="5" depart="15.00" departLane="-32101654#13_0" departPos="5.10" departSpeed="0.00" departDelay="0.00" arrival="107.00" arrivalLane="1339758582#1_0" arrivalPos="26.60" arrivalSpeed="11.03" duration="92.00" routeLength="995.84" waitingTime="0.00" waitingCount="0" stopTime="0.00" timeLoss="10.46" rerouteNo="0" devices="tripinfo_5" vType="DEFAULT_VEHTYPE" speedFactor="1.03" vaporized=""/>
    <tripinfo id="4" depart="12.00" departLane="-8036296#1_0" departPos="5.10" departSpeed="0.00" departDelay="0.00" arrival="132.00" arrivalLane="-1323929188_0" arrivalPos="29.88" arrivalSpeed="9.36" duration="120.00" routeLength="1428.94" waitingTime="0.00" waitingCount="0" stopTime="0.00" timeLoss="20.10" rerouteNo="0" devices="tripinfo_4" vType="DEFAULT_VEHTYPE" speedFactor="1.08" vaporized=""/>
    <tripinfo id="20" depart="60.00" departLane="27294989#1_0" departPos="5.10" departSpeed="0.00" departDelay="0.00" arrival="182.00" arrivalLane="-1338997395#1_0" arrivalPos="221.67" arrivalSpeed="10.30" duration="122.00" routeLength="1170.26" waitingTime="0.00" waitingCount="0" stopTime="0.00" timeLoss="12.99" rerouteNo="0" devices="tripinfo_20" vType="DEFAULT_VEHTYPE" speedFactor="0.94" vaporized=""/>
    <tripinfo id="21" depart="63.00" departLane="-443201187_0" departPos="5.10" departSpeed="0.00" departDelay="0.00" arrival="228.00" arrivalLane="-4814447#3_0" arrivalPos="151.64" arrivalSpeed="12.28" duration="165.00" routeLength="1865.82" waitingTime="19.00" waitingCount="1" stopTime="0.00" timeLoss="59.83" rerouteNo="0" devices="tripinfo_21" vType="DEFAULT_VEHTYPE" speedFactor="1.16" vaporized=""/>
    <tripinfo id="61" depart="183.00" departLane="46786654#4_0" departPos="5.10" departSpeed="0.00" departDelay="0.00" arrival="240.00" arrivalLane="1463656916#0_1" arrivalPos="88.31" arrivalSpeed="12.88" duration="57.00" routeLength="245.14" waitingTime="29.00" waitingCount="1" stopTime="0.00" timeLoss="38.69" rerouteNo="0" devices="tripinfo_61" vType="DEFAULT_VEHTYPE" speedFactor="0.97" vaporized=""/>
    <tripinfo id="70" depart="210.00" departLane="132936844#8_0" departPos="5.10" departSpeed="0.00" departDelay="0.00" arrival="251.00" arrivalLane="163216718#3_0" arrivalPos="34.58" arrivalSpeed="13.73" duration="41.00" routeLength="435.76" waitingTime="0.00" waitingCount="0" stopTime="0.00" timeLoss="9.37" rerouteNo="0" devices="tripinfo_70" vType="DEFAULT_VEHTYPE" speedFactor="1.04" vaporized=""/>
    <tripinfo id="15" depart="45.00" departLane="4814368#5_0" departPos="5.10" departSpeed="0.00" departDelay="0.00" arrival="316.00" arrivalLane="32096409#4_0" arrivalPos="155.44" arrivalSpeed="15.24" duration="271.00" routeLength="2985.34" waitingTime="35.00" waitingCount="3" stopTime="0.00" timeLoss="72.67" rerouteNo="0" devices="tripinfo_15" vType="DEFAULT_VEHTYPE" speedFactor="1.12" vaporized=""/>
    <tripinfo id="89" depart="267.00" departLane="-804796735#1_0" departPos="5.10" departSpeed="0.00" departDelay="0.00" arrival="337.00" arrivalLane="1318245273_0" arrivalPos="40.22" arrivalSpeed="16.55" duration="70.00" routeLength="706.07" waitingTime="0.00" waitingCount="0" stopTime="0.00" timeLoss="15.95" rerouteNo="0" devices="tripinfo_89" vType="DEFAULT_VEHTYPE" speedFactor="1.04" vaporized=""/>
    <tripinfo id="74" depart="222.00" departLane="-27294995#3_0" departPos="5.10" departSpeed="0.00" departDelay="0.00" arrival="343.00" arrivalLane="-4818649#0_0" arrivalPos="72.13" arrivalSpeed="12.30" duration="121.00" routeLength="1227.17" waitingTime="0.00" waitingCount="0" stopTime="0.00" timeLoss="20.04" rerouteNo="0" devices="tripinfo_74" vType="DEFAULT_VEHTYPE" speedFactor="0.94" vaporized=""/>
    <tripinfo id="96" depart="288.00" departLane="-469399741#4_0" departPos="5.10" departSpeed="0.00" departDelay="0.00" arrival="358.00" arrivalLane="4869097#0_0" arrivalPos="116.43" arrivalSpeed="14.05" duration="70.00" routeLength="492.46" waitingTime="17.00" waitingCount="1" stopTime="0.00" timeLoss="33.97" rerouteNo="0" devices="tripinfo_96" vType="DEFAULT_VEHTYPE" speedFactor="1.09" vaporized=""/>
    <tripinfo id="63" depart="189.00" departLane="-1272969045#0_0" departPos="5.10" departSpeed="0.00" departDelay="0.00" arrival="366.00" arrivalLane="4869140#1_0" arrivalPos="191.16" arrivalSpeed="14.83" duration="177.00" routeLength="1775.13" waitingTime="28.00" waitingCount="1" stopTime="0.00" timeLoss="56.21" rerouteNo="0" devices="tripinfo_63" vType="DEFAULT_VEHTYPE" speedFactor="1.12" vaporized=""/>
    <tripinfo id="14" depart="42.00" departLane="4818635#8_0" departPos="5.10" departSpeed="0.00" departDelay="0.00" arrival="379.00" arrivalLane="19166273#0_0" arrivalPos="52.85" arrivalSpeed="14.03" duration="337.00" routeLength="3031.24" waitingTime="90.00" waitingCount="3" stopTime="0.00" timeLoss="126.02" rerouteNo="0" devices="tripinfo_14" vType="DEFAULT_VEHTYPE" speedFactor="1.05" vaporized=""/>
    <tripinfo id="22" depart="66.00" departLane="-149832928#1_0" departPos="5.10" departSpeed="0.00" departDelay="0.00" arrival="390.00" arrivalLane="-4614605#7_1" arrivalPos="15.95" arrivalSpeed="13.31" duration="324.00" routeLength="2461.87" waitingTime="107.00" waitingCount="4" stopTime="0.00" timeLoss="145.81" rerouteNo="0" devices="tripinfo_22" vType="DEFAULT_VEHTYPE" speedFactor="1.02" vaporized=""/>
    <tripinfo id="78" depart="234.00" departLane="-4826693#1_0" departPos="5.10" departSpeed="0.00" departDelay="0.00" arrival="425.00" arrivalLane="17557380#1_0" arrivalPos="68.20" arrivalSpeed="13.53" duration="191.00" routeLength="1600.63" waitingTime="46.00" waitingCount="1" stopTime="0.00" timeLoss="75.99" rerouteNo="0" devices="tripinfo_78" vType="DEFAULT_VEHTYPE" speedFactor="1.03" vaporized=""/>
    <tripinfo id="59" depart="177.00" departLane="196471985#5_0" departPos="5.10" departSpeed="0.00" departDelay="0.00" arrival="428.00" arrivalLane="-202227581#1_0" arrivalPos="151.11" arrivalSpeed="15.86" duration="251.00" routeLength="1588.81" waitingTime="118.00" waitingCount="3" stopTime="0.00" timeLoss="148.10" rerouteNo="0" devices="tripinfo_59" vType="DEFAULT_VEHTYPE" speedFactor="1.14" vaporized=""/>
    <tripinfo id="107" depart="321.00" departLane="544981509#1_0" departPos="5.10" departSpeed="0.00" departDelay="0.00" arrival="428.00" arrivalLane="951858208#1_0" arrivalPos="34.05" arrivalSpeed="11.19" duration="107.00" routeLength="1140.60" waitingTime="5.00" waitingCount="1" stopTime="0.00" timeLoss="23.99" rerouteNo="0" devices="tripinfo_107" vType="DEFAULT_VEHTYPE" speedFactor="1.07" vaporized=""/>
    <tripinfo id="87" depart="261.00" departLane="4814370#1_0" departPos="5.10" departSpeed="0.00" departDelay="0.00" arrival="437.00" arrivalLane="-27294984#6_0" arrivalPos="148.61" arrivalSpeed="9.62" duration="176.00" routeLength="1798.08" waitingTime="0.00" waitingCount="0" stopTime="0.00" timeLoss="19.34" rerouteNo="0" devices="tripinfo_87" vType="DEFAULT_VEHTYPE" speedFactor="0.98" vaporized=""/>
    <tripinfo id="86" depart="258.00" departLane="132371843#8_0" departPos="5.10" departSpeed="0.00" departDelay="0.00" arrival="441.00" arrivalLane="468697559#3_1" arrivalPos="37.01" arrivalSpeed="15.64" duration="183.00" routeLength="2599.60" waitingTime="2.00" waitingCount="1" stopTime="0.00" timeLoss="25.12" rerouteNo="0" devices="tripinfo_86" vType="DEFAULT_VEHTYPE" speedFactor="1.15" vaporized=""/>
    <tripinfo id="32" depart="96.00" departLane="4818627#7_0" departPos="5.10" departSpeed="0.00" departDelay="0.00" arrival="446.00" arrivalLane="467465586#1_0" arrivalPos="79.86" arrivalSpeed="15.60" duration="350.00" routeLength="3605.99" waitingTime="59.00" waitingCount="2" stopTime="0.00" timeLoss="105.19" rerouteNo="0" devices="tripinfo_32" vType="DEFAULT_VEHTYPE" speedFactor="1.18" vaporized=""/>
    <tripinfo id="112" depart="336.00" departLane="-1339758572#2_0" departPos="5.10" departSpeed="0.00" departDelay="0.00" arrival="447.00" arrivalLane="173947019#2_0" arrivalPos="31.09" arrivalSpeed="9.28" duration="111.00" routeLength="873.61" waitingTime="20.00" waitingCount="1" stopTime="0.00" timeLoss="32.14" rerouteNo="0" devices="tripinfo_112" vType="DEFAULT_VEHTYPE" speedFactor="0.93" vaporized=""/>
    <tripinfo id="24" depart="72.00" departLane="202223177#5_0" departPos="5.10" departSpeed="0.00" departDelay="0.00" arrival="458.00" arrivalLane="-4869069#0_0" arrivalPos="153.94" arrivalSpeed="13.15" duration="386.00" routeLength="3821.40" waitingTime="51.00" waitingCount="3" stopTime="0.00" timeLoss="96.04" rerouteNo="0" devices="tripinfo_24" vType="DEFAULT_VEHTYPE" speedFactor="0.97" vaporized=""/>
    <tripinfo id="38" depart="114.00" departLane="4869071#3_0" departPos="5.10" departSpeed="0.00" departDelay="0.00" arrival="458.00" arrivalLane="127734690#1_0" arrivalPos="53.06" arrivalSpeed="13.13" duration="344.00" routeLength="2464.25" waitingTime="112.00" waitingCount="5" stopTime="0.00" timeLoss="156.89" rerouteNo="0" devices="tripinfo_38" vType="DEFAULT_VEHTYPE" speedFactor="0.97" vaporized=""/>
    <tripinfo id="102" depart="306.00" departLane="1338997383#2_0" departPos="5.10" departSpeed="0.00" departDelay="0.00" arrival="463.00" arrivalLane="-32097877#1_0" arrivalPos="149.81" arrivalSpeed="14.53" duration="157.00" routeLength="1830.14" waitingTime="0.00" waitingCount="0" stopTime="0.00" timeLoss="15.56" rerouteNo="0" devices="tripinfo_102" vType="DEFAULT_VEHTYPE" speedFactor="1.06" vaporized=""/>
    <tripinfo id="75" depart="225.00" departLane="9333068_0" departPos="5.10" departSpeed="0.00" departDelay="0.00" arrival="469.00" arrivalLane="204157473#3_1" arrivalPos="26.50" arrivalSpeed="14.50" duration="244.00" routeLength="1967.62" waitingTime="83.00" waitingCount="4" stopTime="0.00" timeLoss="121.58" rerouteNo="0" devices="tripinfo_75" vType="DEFAULT_VEHTYPE" speedFactor="1.06" vaporized=""/>
    <tripinfo id="19" depart="57.00" departLane="4820662#1_0" departPos="5.10" departSpeed="0.00" departDelay="0.00" arrival="476.00" arrivalLane="172425545#5_0" arrivalPos="152.13" arrivalSpeed="10.30" duration="419.00" routeLength="3898.35" waitingTime="83.00" waitingCount="2" stopTime="0.00" timeLoss="129.27" rerouteNo="0" devices="tripinfo_19" vType="DEFAULT_VEHTYPE" speedFactor="0.94" vaporized=""/>
    <tripinfo id="65" depart="195.00" departLane="-4818635#11_0" departPos="5.10" departSpeed="0.00" departDelay="0.00" arrival="486.00" arrivalLane="-1339758575#2_0" arrivalPos="34.85" arrivalSpeed="10.81" duration="291.00" routeLength="2179.73" waitingTime="78.00" waitingCount="4" stopTime="0.00" timeLoss="118.76" rerouteNo="0" devices="tripinfo_65" vType="DEFAULT_VEHTYPE" speedFactor="0.99" vaporized=""/>
    <tripinfo id="54" depart="162.00" departLane="1271382336#0_0" departPos="5.10" departSpeed="0.00" departDelay="0.00" arrival="490.00" arrivalLane="538899478#3_0" arrivalPos="36.39" arrivalSpeed="10.11" duration="328.00" routeLength="3277.69" waitingTime="57.00" waitingCount="1" stopTime="0.00" timeLoss="82.07" rerouteNo="0" devices="tripinfo_54" vType="DEFAULT_VEHTYPE" speedFactor="1.02" vaporized=""/>
    <tripinfo id="67" depart="201.00" departLane="-159611909#0_0" departPos="5.10" departSpeed="0.00" departDelay="0.00" arrival="502.00" arrivalLane="1338997387#0_0" arrivalPos="262.71" arrivalSpeed="9.10" duration="301.00" routeLength="2671.11" waitingTime="23.00" waitingCount="1" stopTime="0.00" timeLoss="54.10" rerouteNo="0" devices="tripinfo_67" vType="DEFAULT_VEHTYPE" speedFactor="0.88" vaporized=""/>
    <tripinfo id="36" depart="108.00" departLane="4822265#4_0" departPos="5.10" departSpeed="0.00" departDelay="0.00" arrival="507.00" arrivalLane="-4820565#8_0" arrivalPos="36.61" arrivalSpeed="13.60" duration="399.00" routeLength="4306.58" waitingTime="36.00" waitingCount="2" stopTime="0.00" timeLoss="87.19" rerouteNo="0" devices="tripinfo_36" vType="DEFAULT_VEHTYPE" speedFactor="0.99" vaporized=""/>
    <tripinfo id="58" depart="174.00" departLane="-4818624#3_0" departPos="5.10" departSpeed="0.00" departDelay="0.00" arrival="512.00" arrivalLane="202223191#7_0" arrivalPos="152.67" arrivalSpeed="9.18" duration="338.00" routeLength="2270.99" waitingTime="97.00" waitingCount="3" stopTime="0.00" timeLoss="138.05" rerouteNo="0" devices="tripinfo_58" vType="DEFAULT_VEHTYPE" speedFactor="0.90" vaporized=""/>
    <tripinfo id="73" depart="219.00" departLane="149213857#17_0" departPos="5.10" departSpeed="0.00" departDelay="0.00" arrival="514.00" arrivalLane="32096409#6_0" arrivalPos="151.40" arrivalSpeed="12.41" duration="295.00" routeLength="2340.82" waitingTime="88.00" waitingCount="3" stopTime="0.00" timeLoss="117.17" rerouteNo="0" devices="tripinfo_73" vType="DEFAULT_VEHTYPE" speedFactor="0.97" vaporized=""/>
    <tripinfo id="34" depart="102.00" departLane="-4818657#5_0" departPos="5.10" departSpeed="0.00" departDelay="0.00" arrival="517.00" arrivalLane="-4814371#5_0" arrivalPos="33.84" arrivalSpeed="10.96" duration="415.00" routeLength="4288.18" waitingTime="50.00" waitingCount="3" stopTime="0.00" timeLoss="97.61" rerouteNo="0" devices="tripinfo_34" vType="DEFAULT_VEHTYPE" speedFactor="1.01" vaporized=""/>
    <tripinfo id="13" depart="39.00" departLane="-163303432#12_0" departPos="5.10" departSpeed="0.00" departDelay="0.00" arrival="523.00" arrivalLane="-163317177#32_0" arrivalPos="36.19" arrivalSpeed="13.78" duration="484.00" routeLength="1531.45" waitingTime="329.00" waitingCount="7" stopTime="0.00" timeLoss="374.07" rerouteNo="0" devices="tripinfo_13" vType="DEFAULT_VEHTYPE" speedFactor="1.03" vaporized=""/>
    <tripinfo id="126" depart="378.00" departLane="-143323555#0_0" departPos="5.10" departSpeed="0.00" departDelay="0.00" arrival="523.00" arrivalLane="1275876462#1_0" arrivalPos="27.84" arrivalSpeed="13.22" duration="145.00" routeLength="1700.27" waitingTime="0.00" waitingCount="0" stopTime="0.00" timeLoss="22.42" rerouteNo="0" devices="tripinfo_126" vType="DEFAULT_VEHTYPE" speedFactor="1.02" vaporized=""/>
    <tripinfo id="138" depart="414.00" departLane="-172360434#8_0" departPos="5.10" departSpeed="0.00" departDelay="0.00" arrival="530.00" arrivalLane="163303445#0_1" arrivalPos="79.63" arrivalSpeed="16.42" duration="116.00" routeLength="1627.10" waitingTime="0.00" waitingCount="0" stopTime="0.00" timeLoss="18.83" rerouteNo="0" devices="tripinfo_138" vType="DEFAULT_VEHTYPE" speedFactor="1.23" vaporized=""/>
    <tripinfo id="136" depart="408.00" departLane="217763216#3_0" departPos="5.10" departSpeed="0.00" departDelay="0.00" arrival="541.00" arrivalLane="5064953#1_0" arrivalPos="78.95" arrivalSpeed="10.13" duration="133.00" routeLength="1243.19" waitingTime="19.00" waitingCount="1" stopTime="0.00" timeLoss="32.42" rerouteNo="0" devices="tripinfo_136" vType="DEFAULT_VEHTYPE" speedFactor="0.96" vaporized=""/>
    <tripinfo id="84" depart="252.00" departLane="-32096713#6_0" departPos="5.10" departSpeed="0.00" departDelay="0.00" arrival="564.00" arrivalLane="-196472006#7_1" arrivalPos="12.86" arrivalSpeed="13.76" duration="312.00" routeLength="1486.64" waitingTime="159.00" waitingCount="5" stopTime="0.00" timeLoss="202.72" rerouteNo="0" devices="tripinfo_84" vType="DEFAULT_VEHTYPE" speedFactor="1.02" vaporized=""/>
    <tripinfo id="9" depart="27.00" departLane="4814370#7_0" departPos="5.10" departSpeed="0.00" departDelay="0.00" arrival="565.00" arrivalLane="-12100762#1_0" arrivalPos="144.97" arrivalSpeed="12.54" duration="538.00" routeLength="4325.68" waitingTime="129.00" waitingCount="5" stopTime="0.00" timeLoss="191.59" rerouteNo="0" devices="tripinfo_9" vType="DEFAULT_VEHTYPE" speedFactor="0.94" vaporized=""/>
    <tripinfo id="130" depart="390.00" departLane="4826684#3_0" departPos="5.10" departSpeed="0.00" departDelay="0.00" arrival="569.00" arrivalLane="4826693#1_0" arrivalPos="36.98" arrivalSpeed="10.75" duration="179.00" routeLength="1237.99" waitingTime="45.00" waitingCount="2" stopTime="0.00" timeLoss="67.72" rerouteNo="0" devices="tripinfo_130" vType="DEFAULT_VEHTYPE" speedFactor="0.82" vaporized=""/>
    <tripinfo id="80" depart="240.00" departLane="-141106322#41_0" departPos="5.10" departSpeed="0.00" departDelay="0.00" arrival="571.00" arrivalLane="202223174#0_0" arrivalPos="100.81" arrivalSpeed="13.39" duration="331.00" routeLength="2123.30" waitingTime="138.00" waitingCount="4" stopTime="0.00" timeLoss="177.69" rerouteNo="0" devices="tripinfo_80" vType="DEFAULT_VEHTYPE" speedFactor="1.01" vaporized=""/>
    <tripinfo id="6" depart="18.00" departLane="-1309562293#5_0" departPos="5.10" departSpeed="0.00" departDelay="0.00" arrival="573.00" arrivalLane="-27294995#6_0" arrivalPos="153.58" arrivalSpeed="8.03" duration="555.00" routeLength="3352.99" waitingTime="198.00" waitingCount="5" stopTime="0.00" timeLoss="248.77" rerouteNo="0" devices="tripinfo_6" vType="DEFAULT_VEHTYPE" speedFactor="0.83" vaporized=""/>
    <tripinfo id="45" depart="135.00" departLane="-172405332#3_0" departPos="5.10" departSpeed="0.00" departDelay="0.00" arrival="573.00" arrivalLane="198464179#2_0" arrivalPos="146.68" arrivalSpeed="14.18" duration="438.00" routeLength="2056.68" waitingTime="239.00" waitingCount="6" stopTime="0.00" timeLoss="291.78" rerouteNo="0" devices="tripinfo_45" vType="DEFAULT_VEHTYPE" speedFactor="1.04" vaporized=""/>
    <tripinfo id="122" depart="366.00" departLane="-290075930#0_0" departPos="5.10" departSpeed="0.00" departDelay="0.00" arrival="574.00" arrivalLane="298687479#7_1" arrivalPos="38.99" arrivalSpeed="14.08" duration="208.00" routeLength="1832.75" waitingTime="50.00" waitingCount="2" stopTime="0.00" timeLoss="76.51" rerouteNo="0" devices="tripinfo_122" vType="DEFAULT_VEHTYPE" speedFactor="1.07" vaporized=""/>
    <tripinfo id="43" depart="129.00" departLane="957714782#0_0" departPos="5.10" departSpeed="0.00" departDelay="0.00" arrival="576.00" arrivalLane="1340472031#1_0" arrivalPos="137.67" arrivalSpeed="12.43" duration="447.00" routeLength="4954.92" waitingTime="32.00" waitingCount="2" stopTime="0.00" timeLoss="86.57" rerouteNo="0" devices="tripinfo_43" vType="DEFAULT_VEHTYPE" speedFactor="0.96" vaporized=""/>
    <tripinfo id="101" depart="303.00" departLane="4818643#0_0" departPos="5.10" departSpeed="0.00" departDelay="0.00" arrival="585.00" arrivalLane="-222032504#4_0" arrivalPos="56.90" arrivalSpeed="11.97" duration="282.00" routeLength="2543.55" waitingTime="65.00" waitingCount="3" stopTime="0.00" timeLoss="99.08" rerouteNo="0" devices="tripinfo_101" vType="DEFAULT_VEHTYPE" speedFactor="1.10" vaporized=""/>
    <tripinfo id="81" depart="243.00" departLane="-453656863#3_0" departPos="5.10" departSpeed="0.00" departDelay="0.00" arrival="596.00" arrivalLane="4868420#1_0" arrivalPos="32.01" arrivalSpeed="13.53" duration="353.00" routeLength="3511.10" waitingTime="77.00" waitingCount="2" stopTime="0.00" timeLoss="115.27" rerouteNo="0" devices="tripinfo_81" vType="DEFAULT_VEHTYPE" speedFactor="1.09" vaporized=""/>
    <tripinfo id="99" depart="297.00" departLane="970997094_0" departPos="5.10" departSpeed="0.00" departDelay="0.00" arrival="596.00" arrivalLane="4818623#2_0" arrivalPos="156.72" arrivalSpeed="11.68" duration="299.00" routeLength="3113.78" waitingTime="11.00" waitingCount="2" stopTime="0.00" timeLoss="46.10" rerouteNo="0" devices="tripinfo_99" vType="DEFAULT_VEHTYPE" speedFactor="0.91" vaporized=""/>
    <tripinfo id="8" depart="24.00" departLane="-32105489#2_0" departPos="5.10" departSpeed="0.00" departDelay="0.00" arrival="604.00" arrivalLane="17557389#1_0" arrivalPos="142.01" arrivalSpeed="12.25" duration="580.00" routeLength="4321.35" waitingTime="169.00" waitingCount="6" stopTime="0.00" timeLoss="241.08" rerouteNo="0" devices="tripinfo_8" vType="DEFAULT_VEHTYPE" speedFactor="0.89" vaporized=""/>
    <tripinfo id="97" depart="291.00" departLane="1218664361#1_0" departPos="5.10" departSpeed="0.00" departDelay="0.00" arrival="607.00" arrivalLane="4820665#1_0" arrivalPos="114.24" arrivalSpeed="14.30" duration="316.00" routeLength="2864.76" waitingTime="77.00" waitingCount="3" stopTime="0.00" timeLoss="116.09" rerouteNo="0" devices="tripinfo_97" vType="DEFAULT_VEHTYPE" speedFactor="1.06" vaporized=""/>
    <tripinfo id="95" depart="285.00" departLane="-8036296#1_0" departPos="5.10" departSpeed="0.00" departDelay="0.00" arrival="611.00" arrivalLane="-4814413#3_0" arrivalPos="217.12" arrivalSpeed="10.03" duration="326.00" routeLength="2949.50" waitingTime="42.00" waitingCount="1" stopTime="0.00" timeLoss="72.53" rerouteNo="0" devices="tripinfo_95" vType="DEFAULT_VEHTYPE" speedFactor="0.92" vaporized=""/>
    <tripinfo id="106" depart="318.00" departLane="1272736250#1_0" departPos="5.10" departSpeed="0.00" departDelay="0.00" arrival="613.00" arrivalLane="-848656103#1_0" arrivalPos="43.19" arrivalSpeed="11.13" duration="295.00" routeLength="2235.18" waitingTime="70.00" waitingCount="4" stopTime="0.00" timeLoss="111.44" rerouteNo="0" devices="tripinfo_106" vType="DEFAULT_VEHTYPE" speedFactor="0.89" vaporized=""/>
    <tripinfo id="35" depart="105.00" departLane="-32094343#0_0" departPos="5.10" departSpeed="0.00" departDelay="0.00" arrival="615.00" arrivalLane="511579309#1_0" arrivalPos="118.98" arrivalSpeed="15.77" duration="510.00" routeLength="3457.28" waitingTime="212.00" waitingCount="9" stopTime="0.00" timeLoss="294.14" rerouteNo="0" devices="tripinfo_35" vType="DEFAULT_VEHTYPE" speedFactor="1.17" vaporized=""/>
    <tripinfo id="189" depart="567.00" departLane="-4818647#9_0" departPos="5.10" departSpeed="0.00" departDelay="0.00" arrival="627.00" arrivalLane="4818642#1_0" arrivalPos="97.67" arrivalSpeed="12.12" duration="60.00" routeLength="629.78" waitingTime="0.00" waitingCount="0" stopTime="0.00" timeLoss="10.09" rerouteNo="0" devices="tripinfo_189" vType="DEFAULT_VEHTYPE" speedFactor="0.94" vaporized=""/>
    <tripinfo id="3" depart="9.00" departLane="484761642_0" departPos="5.10" departSpeed="0.00" departDelay="0.00" arrival="628.00" arrivalLane="-159611909#0_0" arrivalPos="275.29" arrivalSpeed="13.59" duration="619.00" routeLength="5472.22" waitingTime="185.00" waitingCount="5" stopTime="0.00" timeLoss="257.68" rerouteNo="0" devices="tripinfo_3" vType="DEFAULT_VEHTYPE" speedFactor="1.01" vaporized=""/>
    <tripinfo id="158" depart="474.00" departLane="-55407813#3_0" departPos="5.10" departSpeed="0.00" departDelay="0.00" arrival="631.00" arrivalLane="196615704#3_0" arrivalPos="72.32" arrivalSpeed="11.73" duration="157.00" routeLength="800.82" waitingTime="78.00" waitingCount="2" stopTime="0.00" timeLoss="97.51" rerouteNo="0" devices="tripinfo_158" vType="DEFAULT_VEHTYPE" speedFactor="1.06" vaporized=""/>
    <tripinfo id="113" depart="339.00" departLane="1339183076#2_0" departPos="5.10" departSpeed="0.00" departDelay="0.00" arrival="637.00" arrivalLane="4818647#6_0" arrivalPos="32.55" arrivalSpeed="11.84" duration="298.00" routeLength="2806.82" waitingTime="13.00" waitingCount="1" stopTime="0.00" timeLoss="44.83" rerouteNo="0" devices="tripinfo_113" vType="DEFAULT_VEHTYPE" speedFactor="0.87" vaporized=""/>
    <tripinfo id="127" depart="381.00" departLane="961460493_0" departPos="5.10" departSpeed="0.00" departDelay="0.00" arrival="638.00" arrivalLane="957714781_0" arrivalPos="173.21" arrivalSpeed="20.12" duration="257.00" routeLength="2865.51" waitingTime="46.00" waitingCount="2" stopTime="0.00" timeLoss="71.44" rerouteNo="0" devices="tripinfo_127" vType="DEFAULT_VEHTYPE" speedFactor="1.06" vaporized=""/>
    <tripinfo id="134" depart="402.00" departLane="204200131#1_0" departPos="5.10" departSpeed="0.00" departDelay="0.00" arrival="644.00" arrivalLane="-1218664352#1_0" arrivalPos="30.18" arrivalSpeed="10.30" duration="242.00" routeLength="2773.91" waitingTime="20.00" waitingCount="1" stopTime="0.00" timeLoss="56.58" rerouteNo="0" devices="tripinfo_134" vType="DEFAULT_VEHTYPE" speedFactor="1.03" vaporized=""/>
    <tripinfo id="94" depart="282.00" departLane="-27055302#1_0" departPos="5.10" departSpeed="0.00" departDelay="0.00" arrival="646.00" arrivalLane="1271382332#4_0" arrivalPos="150.70" arrivalSpeed="9.04" duration="364.00" routeLength="2751.56" waitingTime="78.00" waitingCount="3" stopTime="0.00" timeLoss="115.96" rerouteNo="0" devices="tripinfo_94" vType="DEFAULT_VEHTYPE" speedFactor="0.83" vaporized=""/>
    <tripinfo id="116" depart="348.00" departLane="17619597#6_0" departPos="5.10" departSpeed="0.00" departDelay="0.00" arrival="648.00" arrivalLane="237300054#1_0" arrivalPos="23.31" arrivalSpeed="23.80" duration="300.00" routeLength="2681.63" waitingTime="76.00" waitingCount="2" stopTime="0.00" timeLoss="119.80" rerouteNo="0" devices="tripinfo_116" vType="DEFAULT_VEHTYPE" speedFactor="1.10" vaporized=""/>
    <tripinfo id="28" depart="84.00" departLane="-233755780#1_0" departPos="5.10" departSpeed="0.00" departDelay="0.00" arrival="652.00" arrivalLane="32096409#1_0" arrivalPos="186.66" arrivalSpeed="12.69" duration="568.00" routeLength="3965.53" waitingTime="179.00" waitingCount="6" stopTime="0.00" timeLoss="239.94" rerouteNo="0" devices="tripinfo_28" vType="DEFAULT_VEHTYPE" speedFactor="0.92" vaporized=""/>
    <tripinfo id="41" depart="123.00" departLane="172438253#1_0" departPos="5.10" departSpeed="0.00" departDelay="0.00" arrival="658.00" arrivalLane="4860495#0_0" arrivalPos="13.22" arrivalSpeed="9.14" duration="535.00" routeLength="4613.15" waitingTime="101.00" waitingCount="5" stopTime="0.00" timeLoss="161.07" rerouteNo="0" devices="tripinfo_41" vType="DEFAULT_VEHTYPE" speedFactor="0.90" vaporized=""/>
    <tripinfo id="52" depart="156.00" departLane="-4814368#1_0" departPos="5.10" departSpeed="0.00" departDelay="0.00" arrival="661.00" arrivalLane="202227567#0_0" arrivalPos="12.54" arrivalSpeed="6.67" duration="505.00" routeLength="3965.30" waitingTime="98.00" waitingCount="4" stopTime="0.00" timeLoss="151.47" rerouteNo="0" devices="tripinfo_52" vType="DEFAULT_VEHTYPE" speedFactor="0.85" vaporized=""/>
    <tripinfo id="103" depart="309.00" departLane="-538899478#10_0" departPos="5.10" departSpeed="0.00" departDelay="0.00" arrival="661.00" arrivalLane="-1339758577#1_0" arrivalPos="149.28" arrivalSpeed="9.87" duration="352.00" routeLength="2732.58" waitingTime="80.00" waitingCount="2" stopTime="0.00" timeLoss="109.44" rerouteNo="0" devices="tripinfo_103" vType="DEFAULT_VEHTYPE" speedFactor="0.96" vaporized=""/>
    <tripinfo id="49" depart="147.00" departLane="582014891#0_0" departPos="5.10" departSpeed="0.00" departDelay="0.00" arrival="668.00" arrivalLane="4820664#1_0" arrivalPos="104.00" arrivalSpeed="12.22" duration="521.00" routeLength="3154.43" waitingTime="200.00" waitingCount="5" stopTime="0.00" timeLoss="252.10" rerouteNo="0" devices="tripinfo_49" vType="DEFAULT_VEHTYPE" speedFactor="0.90" vaporized=""/>
    <tripinfo id="148" depart="444.00" departLane="-880365080#1_0" departPos="5.10" departSpeed="0.00" departDelay="0.00" arrival="670.00" arrivalLane="-1265901843#0_0" arrivalPos="181.48" arrivalSpeed="9.87" duration="226.00" routeLength="654.92" waitingTime="137.00" waitingCount="3" stopTime="0.00" timeLoss="155.64" rerouteNo="0" devices="tripinfo_148" vType="DEFAULT_VEHTYPE" speedFactor="0.73" vaporized=""/>
    <tripinfo id="25" depart="75.00" departLane="-4869079#4_0" departPos="5.10" departSpeed="0.00" departDelay="0.00" arrival="672.00" arrivalLane="-32095714#3_0" arrivalPos="35.60" arrivalSpeed="11.34" duration="597.00" routeLength="4132.23" waitingTime="162.00" waitingCount="9" stopTime="0.00" timeLoss="244.86" rerouteNo="0" devices="tripinfo_25" vType="DEFAULT_VEHTYPE" speedFactor="0.89" vaporized=""/>
    <tripinfo id="140" depart="420.00" departLane="298687482#1_0" departPos="5.10" departSpeed="0.00" departDelay="0.00" arrival="675.00" arrivalLane="-298687478#0_0" arrivalPos="382.46" arrivalSpeed="14.49" duration="255.00" routeLength="2866.74" waitingTime="34.00" waitingCount="1" stopTime="0.00" timeLoss="67.77" rerouteNo="0" devices="tripinfo_140" vType="DEFAULT_VEHTYPE" speedFactor="1.12" vaporized=""/>
    <tripinfo id="183" depart="549.00" departLane="-4717031#3_0" departPos="5.10" departSpeed="0.00" departDelay="0.00" arrival="677.00" arrivalLane="27294995#3_0" arrivalPos="113.49" arrivalSpeed="11.33" duration="128.00" routeLength="1357.59" waitingTime="0.00" waitingCount="0" stopTime="0.00" timeLoss="14.44" rerouteNo="0" devices="tripinfo_183" vType="DEFAULT_VEHTYPE" speedFactor="1.08" vaporized=""/>
    <tripinfo id="12" depart="36.00" departLane="544981509#1_0" departPos="5.10" departSpeed="0.00" departDelay="0.00" arrival="681.00" arrivalLane="-4826689#3_0" arrivalPos="33.38" arrivalSpeed="14.28" duration="645.00" routeLength="4264.05" waitingTime="252.00" waitingCount="8" stopTime="0.00" timeLoss="336.46" rerouteNo="0" devices="tripinfo_12" vType="DEFAULT_VEHTYPE" speedFactor="1.09" vaporized=""/>