<?xml version="1.0" encoding="UTF-8"?>

<!-- generated on 2026-06-23 15:10:43 by Eclipse SUMO sumo Version 1.18.0
<configuration xmlns:xsi="http://www.w3.org/2001/XMLSchema-instance" xsi:noNamespaceSchemaLocation="http://sumo.dlr.de/xsd/sumoConfiguration.xsd">

    <input>
        <net-file value="/home/cochonhome/Documents/Calgary-SUMO/calgary_downtown.net.xml"/>
        <route-files value="/home/cochonhome/Documents/Calgary-SUMO/od/calgary_od_extended_calibrated.rou.xml"/>
    </input>

    <output>
        <tripinfo-output value="/home/cochonhome/Documents/Calgary-SUMO/output/tripinfo_ns_favor.xml"/>
    </output>

    <time>
        <begin value="0"/>
        <end value="3600"/>
    </time>

    <processing>
        <time-to-teleport value="300"/>
        <max-depart-delay value="600"/>
    </processing>

    <report>
        <no-warnings value="true"/>
        <no-step-log value="true"/>
    </report>

    <traci_server>
        <remote-port value="57563"/>
    </traci_server>

</configuration>
-->

<tripinfos xmlns:xsi="http://www.w3.org/2001/XMLSchema-instance" xsi:noNamespaceSchemaLocation="http://sumo.dlr.de/xsd/tripinfo_file.xsd">
    <tripinfo id="t7" depart="598.00" departLane="130359884#1_0" departPos="5.10" departSpeed="0.00" departDelay="0.30" arrival="779.00" arrivalLane="233756657#1_0" arrivalPos="37.32" arrivalSpeed="12.19" duration="181.00" routeLength="1057.18" waitingTime="83.00" waitingCount="2" stopTime="0.00" timeLoss="99.25" rerouteNo="0" devices="tripinfo_t7" vType="DEFAULT_VEHTYPE" speedFactor="0.94" vaporized=""/>
    <tripinfo id="t0" depart="590.00" departLane="1349096472#1_0" departPos="5.10" departSpeed="0.00" departDelay="0.00" arrival="902.00" arrivalLane="1423613729#3_0" arrivalPos="88.37" arrivalSpeed="13.94" duration="312.00" routeLength="1824.14" waitingTime="159.00" waitingCount="4" stopTime="0.00" timeLoss="193.96" rerouteNo="0" devices="tripinfo_t0" vType="DEFAULT_VEHTYPE" speedFactor="1.06" vaporized=""/>
    <tripinfo id="t5" depart="1880.00" departLane="166187515#2_0" departPos="5.10" departSpeed="0.00" departDelay="0.00" arrival="2163.00" arrivalLane="1423613729#3_0" arrivalPos="88.37" arrivalSpeed="13.50" duration="283.00" routeLength="1198.51" waitingTime="168.00" waitingCount="4" stopTime="0.00" timeLoss="196.80" rerouteNo="0" devices="tripinfo_t5" vType="DEFAULT_VEHTYPE" speedFactor="1.01" vaporized=""/>
    <tripinfo id="t14460" depart="3319.00" departLane="257636719-AddedOnRampEdge_0" departPos="5.10" departSpeed="0.00" departDelay="0.80" arrival="3361.00" arrivalLane="198464181#1_2" arrivalPos="79.21" arrivalSpeed="15.16" duration="42.00" routeLength="584.16" waitingTime="0.00" waitingCount="0" stopTime="0.00" timeLoss="5.21" rerouteNo="0" devices="tripinfo_t14460" vType="DEFAULT_VEHTYPE" speedFactor="1.15" vaporized=""/>
    <tripinfo id="t15188" depart="3315.00" departLane="1325528763#1_0" departPos="5.10" departSpeed="0.00" departDelay="0.70" arrival="3427.00" arrivalLane="222970218#0_0" arrivalPos="221.55" arrivalSpeed="23.03" duration="112.00" routeLength="1589.27" waitingTime="0.00" waitingCount="0" stopTime="0.00" timeLoss="17.82" rerouteNo="0" devices="tripinfo_t15188" vType="DEFAULT_VEHTYPE" speedFactor="1.05" vaporized=""/>
    <tripinfo id="t1557" depart="3325.00" departLane="1349096472#1_0" departPos="5.10" departSpeed="0.00" departDelay="0.70" arrival="3437.00" arrivalLane="196795517_0" arrivalPos="498.37" arrivalSpeed="13.60" duration="112.00" routeLength="1571.37" waitingTime="0.00" waitingCount="0" stopTime="0.00" timeLoss="10.47" rerouteNo="0" devices="tripinfo_t1557" vType="DEFAULT_VEHTYPE" speedFactor="1.04" vaporized=""/>
    <tripinfo id="t12098" depart="3356.00" departLane="254287943#2_0" departPos="5.10" departSpeed="0.00" departDelay="0.80" arrival="3443.00" arrivalLane="222970218#0_1" arrivalPos="221.55" arrivalSpeed="23.44" duration="87.00" routeLength="1392.80" waitingTime="0.00" waitingCount="0" stopTime="0.00" timeLoss="10.02" rerouteNo="0" devices="tripinfo_t12098" vType="DEFAULT_VEHTYPE" speedFactor="1.07" vaporized=""/>
    <tripinfo id="t15527" depart="3320.00" departLane="1325528763#1_0" departPos="5.10" departSpeed="0.00" departDelay="0.60" arrival="3448.00" arrivalLane="222970218#0_0" arrivalPos="221.55" arrivalSpeed="19.67" duration="128.00" routeLength="1589.27" waitingTime="0.00" waitingCount="0" stopTime="0.00" timeLoss="17.16" rerouteNo="0" devices="tripinfo_t15527" vType="DEFAULT_VEHTYPE" speedFactor="0.90" vaporized=""/>
    <tripinfo id="t18450" depart="3378.00" departLane="1427294341#7_0" departPos="5.10" departSpeed="0.00" departDelay="0.40" arrival="3448.00" arrivalLane="558320182#7_1" arrivalPos="18.41" arrivalSpeed="10.58" duration="70.00" routeLength="368.44" waitingTime="28.00" waitingCount="1" stopTime="0.00" timeLoss="37.73" rerouteNo="0" devices="tripinfo_t18450" vType="DEFAULT_VEHTYPE" speedFactor="0.82" vaporized=""/>
    <tripinfo id="t15052" depart="3326.00" departLane="1325528763#1_0" departPos="5.10" departSpeed="0.00" departDelay="2.20" arrival="3453.00" arrivalLane="222970218#0_0" arrivalPos="221.55" arrivalSpeed="21.44" duration="127.00" routeLength="1615.37" waitingTime="3.00" waitingCount="1" stopTime="0.00" timeLoss="24.65" rerouteNo="0" devices="tripinfo_t15052" vType="DEFAULT_VEHTYPE" speedFactor="0.99" vaporized=""/>
    <tripinfo id="t1046" depart="3336.00" departLane="248402400#1_0" departPos="5.10" departSpeed="0.00" departDelay="3.40" arrival="3457.00" arrivalLane="196795517_1" arrivalPos="498.37" arrivalSpeed="14.70" duration="121.00" routeLength="1676.55" waitingTime="0.00" waitingCount="0" stopTime="0.00" timeLoss="16.96" rerouteNo="0" devices="tripinfo_t1046" vType="DEFAULT_VEHTYPE" speedFactor="1.10" vaporized=""/>
    <tripinfo id="t17384" depart="3352.00" departLane="46788423#4_0" departPos="5.10" departSpeed="0.00" departDelay="0.00" arrival="3457.00" arrivalLane="558320190#0_0" arrivalPos="121.45" arrivalSpeed="15.51" duration="105.00" routeLength="925.32" waitingTime="32.00" waitingCount="1" stopTime="0.00" timeLoss="43.59" rerouteNo="0" devices="tripinfo_t17384" vType="DEFAULT_VEHTYPE" speedFactor="1.00" vaporized=""/>
    <tripinfo id="t11833" depart="3329.00" departLane="32548081#1_0" departPos="5.10" departSpeed="0.00" departDelay="0.60" arrival="3458.00" arrivalLane="135678688#1_3" arrivalPos="36.12" arrivalSpeed="12.15" duration="129.00" routeLength="699.03" waitingTime="51.00" waitingCount="3" stopTime="0.00" timeLoss="72.41" rerouteNo="0" devices="tripinfo_t11833" vType="DEFAULT_VEHTYPE" speedFactor="0.89" vaporized=""/>
    <tripinfo id="t12197" depart="3376.00" departLane="292896517_0" departPos="5.10" departSpeed="0.00" departDelay="0.80" arrival="3459.00" arrivalLane="1325528763#1_0" arrivalPos="41.03" arrivalSpeed="8.34" duration="83.00" routeLength="1033.76" waitingTime="7.00" waitingCount="1" stopTime="0.00" timeLoss="28.88" rerouteNo="0" devices="tripinfo_t12197" vType="DEFAULT_VEHTYPE" speedFactor="1.18" vaporized=""/>
    <tripinfo id="t14354" depart="3322.00" departLane="19165946_0" departPos="5.10" departSpeed="0.00" departDelay="2.50" arrival="3463.00" arrivalLane="52510292#1_0" arrivalPos="46.90" arrivalSpeed="13.51" duration="141.00" routeLength="1295.15" waitingTime="22.00" waitingCount="3" stopTime="0.00" timeLoss="49.78" rerouteNo="0" devices="tripinfo_t14354" vType="DEFAULT_VEHTYPE" speedFactor="1.03" vaporized=""/>
    <tripinfo id="t12613" depart="3379.00" departLane="254287943#2_0" departPos="5.10" departSpeed="0.00" departDelay="0.70" arrival="3467.00" arrivalLane="222970218#0_0" arrivalPos="221.55" arrivalSpeed="21.85" duration="88.00" routeLength="1392.80" waitingTime="0.00" waitingCount="0" stopTime="0.00" timeLoss="7.93" rerouteNo="0" devices="tripinfo_t12613" vType="DEFAULT_VEHTYPE" speedFactor="1.02" vaporized=""/>
    <tripinfo id="t12853" depart="3343.00" departLane="198464181#1_0" departPos="5.10" departSpeed="0.00" departDelay="0.70" arrival="3469.00" arrivalLane="222970218#0_0" arrivalPos="221.55" arrivalSpeed="23.50" duration="126.00" routeLength="1869.09" waitingTime="0.00" waitingCount="0" stopTime="0.00" timeLoss="17.24" rerouteNo="0" devices="tripinfo_t12853" vType="DEFAULT_VEHTYPE" speedFactor="1.08" vaporized=""/>
    <tripinfo id="t10911" depart="3323.00" departLane="166789695#2_0" departPos="5.10" departSpeed="0.00" departDelay="0.60" arrival="3471.00" arrivalLane="209086946#1_0" arrivalPos="31.73" arrivalSpeed="13.91" duration="148.00" routeLength="1139.36" waitingTime="53.00" waitingCount="2" stopTime="0.00" timeLoss="72.73" rerouteNo="0" devices="tripinfo_t10911" vType="DEFAULT_VEHTYPE" speedFactor="1.10" vaporized=""/>
    <tripinfo id="t12772" depart="3349.00" departLane="19165392#5_0" departPos="5.10" departSpeed="0.00" departDelay="0.40" arrival="3474.00" arrivalLane="222970218#0_1" arrivalPos="221.55" arrivalSpeed="23.55" duration="125.00" routeLength="1709.33" waitingTime="15.00" waitingCount="1" stopTime="0.00" timeLoss="29.34" rerouteNo="0" devices="tripinfo_t12772" vType="DEFAULT_VEHTYPE" speedFactor="1.10" vaporized=""/>
    <tripinfo id="t12648" depart="3328.00" departLane="222970223#0_0" departPos="5.10" departSpeed="0.00" departDelay="0.90" arrival="3476.00" arrivalLane="222970218#0_0" arrivalPos="221.55" arrivalSpeed="20.55" duration="148.00" routeLength="2031.16" waitingTime="0.00" waitingCount="0" stopTime="0.00" timeLoss="15.34" rerouteNo="0" devices="tripinfo_t12648" vType="DEFAULT_VEHTYPE" speedFactor="0.98" vaporized=""/>
    <tripinfo id="t12603" depart="3356.00" departLane="19165392#5_0" departPos="5.10" departSpeed="0.00" departDelay="0.60" arrival="3485.00" arrivalLane="222970218#0_0" arrivalPos="221.55" arrivalSpeed="21.36" duration="129.00" routeLength="1709.33" waitingTime="9.00" waitingCount="1" stopTime="0.00" timeLoss="23.90" rerouteNo="0" devices="tripinfo_t12603" vType="DEFAULT_VEHTYPE" speedFactor="1.00" vaporized=""/>
    <tripinfo id="t12604" depart="3359.00" departLane="196588540#3_0" departPos="5.10" departSpeed="0.00" departDelay="0.90" arrival="3485.00" arrivalLane="222970218#0_1" arrivalPos="221.55" arrivalSpeed="22.69" duration="126.00" routeLength="1888.21" waitingTime="0.00" waitingCount="0" stopTime="0.00" timeLoss="13.68" rerouteNo="0" devices="tripinfo_t12604" vType="DEFAULT_VEHTYPE" speedFactor="1.04" vaporized=""/>
    <tripinfo id="t48" depart="3363.00" departLane="32097429_0" departPos="5.10" departSpeed="0.00" departDelay="0.70" arrival="3490.00" arrivalLane="209086947#3_0" arrivalPos="90.39" arrivalSpeed="9.67" duration="127.00" routeLength="736.31" waitingTime="45.00" waitingCount="1" stopTime="0.00" timeLoss="56.41" rerouteNo="0" devices="tripinfo_t48" vType="DEFAULT_VEHTYPE" speedFactor="0.75" vaporized=""/>
    <tripinfo id="t15307" depart="3370.00" departLane="257636719-AddedOnRampEdge_0" departPos="5.10" departSpeed="0.00" departDelay="0.30" arrival="3492.00" arrivalLane="222970218#0_0" arrivalPos="221.55" arrivalSpeed="22.06" duration="122.00" routeLength="1665.13" waitingTime="2.00" waitingCount="1" stopTime="0.00" timeLoss="22.32" rerouteNo="0" devices="tripinfo_t15307" vType="DEFAULT_VEHTYPE" speedFactor="1.04" vaporized=""/>
    <tripinfo id="t15251" depart="3352.00" departLane="1325528763#1_0" departPos="5.10" departSpeed="0.00" departDelay="5.90" arrival="3493.00" arrivalLane="222970218#0_1" arrivalPos="221.55" arrivalSpeed="23.90" duration="141.00" routeLength="1615.37" waitingTime="14.00" waitingCount="1" stopTime="0.00" timeLoss="48.32" rerouteNo="0" devices="tripinfo_t15251" vType="DEFAULT_VEHTYPE" speedFactor="1.10" vaporized=""/>
    <tripinfo id="t6536" depart="3427.00" departLane="198464189#2_0" departPos="1.60" departSpeed="0.00" departDelay="0.90" arrival="3494.00" arrivalLane="19165392#5_0" arrivalPos="7.97" arrivalSpeed="13.79" duration="67.00" routeLength="577.87" waitingTime="13.00" waitingCount="1" stopTime="0.00" timeLoss="24.86" rerouteNo="0" devices="tripinfo_t6536" vType="DEFAULT_VEHTYPE" speedFactor="1.03" vaporized=""/>
    <tripinfo id="t1417" depart="3335.00" departLane="166187515#2_0" departPos="5.10" departSpeed="0.00" departDelay="0.00" arrival="3496.00" arrivalLane="198107934_0" arrivalPos="395.36" arrivalSpeed="16.47" duration="161.00" routeLength="1301.53" waitingTime="44.00" waitingCount="3" stopTime="0.00" timeLoss="78.08" rerouteNo="0" devices="tripinfo_t1417" vType="DEFAULT_VEHTYPE" speedFactor="1.06" vaporized=""/>
    <tripinfo id="t14883" depart="3355.00" departLane="1325528763#1_0" departPos="5.10" departSpeed="0.00" departDelay="1.90" arrival="3497.00" arrivalLane="222970218#0_0" arrivalPos="221.55" arrivalSpeed="22.22" duration="142.00" routeLength="1615.37" waitingTime="12.00" waitingCount="1" stopTime="0.00" timeLoss="44.06" rerouteNo="0" devices="tripinfo_t14883" vType="DEFAULT_VEHTYPE" speedFactor="1.04" vaporized=""/>
    <tripinfo id="t8723" depart="3353.00" departLane="19164989#2_0" departPos="5.10" departSpeed="0.00" departDelay="0.80" arrival="3498.00" arrivalLane="209086947#3_2" arrivalPos="90.39" arrivalSpeed="13.29" duration="145.00" routeLength="763.40" waitingTime="61.00" waitingCount="3" stopTime="0.00" timeLoss="87.11" rerouteNo="0" devices="tripinfo_t8723" vType="DEFAULT_VEHTYPE" speedFactor="0.97" vaporized=""/>
    <tripinfo id="t437" depart="3366.00" departLane="1349096472#1_0" departPos="5.10" departSpeed="0.00" departDelay="27.40" arrival="3499.00" arrivalLane="209086947#8_4" arrivalPos="4.26" arrivalSpeed="13.11" duration="133.00" routeLength="1081.39" waitingTime="33.00" waitingCount="1" stopTime="0.00" timeLoss="58.54" rerouteNo="0" devices="tripinfo_t437" vType="DEFAULT_VEHTYPE" speedFactor="0.95" vaporized=""/>
    <tripinfo id="t15041" depart="3380.00" departLane="1325528763#1_0" departPos="5.10" departSpeed="0.00" departDelay="0.40" arrival="3499.00" arrivalLane="222970218#0_0" arrivalPos="221.55" arrivalSpeed="22.38" duration="119.00" routeLength="1615.37" waitingTime="0.00" waitingCount="0" stopTime="0.00" timeLoss="20.42" rerouteNo="0" devices="tripinfo_t15041" vType="DEFAULT_VEHTYPE" speedFactor="1.03" vaporized=""/>
    <tripinfo id="t1554" depart="3372.00" departLane="1349096472#1_0" departPos="5.10" departSpeed="0.00" departDelay="26.90" arrival="3503.00" arrivalLane="196795517_0" arrivalPos="498.37" arrivalSpeed="11.96" duration="131.00" routeLength="1571.37" waitingTime="0.00" waitingCount="0" stopTime="0.00" timeLoss="12.58" rerouteNo="0" devices="tripinfo_t1554" vType="DEFAULT_VEHTYPE" speedFactor="0.90" vaporized=""/>
    <tripinfo id="t8470" depart="3334.00" departLane="209086946#1_0" departPos="5.10" departSpeed="0.00" departDelay="0.00" arrival="3504.00" arrivalLane="1272736250#1_1" arrivalPos="107.80" arrivalSpeed="13.78" duration="170.00" routeLength="1439.50" waitingTime="57.00" waitingCount="3" stopTime="0.00" timeLoss="86.04" rerouteNo="0" devices="tripinfo_t8470" vType="DEFAULT_VEHTYPE" speedFactor="1.07" vaporized=""/>
    <tripinfo id="t12169" depart="3321.00" departLane="198248661#1_0" departPos="5.10" departSpeed="0.00" departDelay="0.70" arrival="3506.00" arrivalLane="222970218#0_0" arrivalPos="221.55" arrivalSpeed="23.06" duration="185.00" routeLength="2134.06" waitingTime="30.00" waitingCount="2" stopTime="0.00" timeLoss="51.95" rerouteNo="0" devices="tripinfo_t12169" vType="DEFAULT_VEHTYPE" speedFactor="1.04" vaporized=""/>
    <tripinfo id="t1410" depart="3322.00" departLane="166187515#2_0" departPos="5.10" departSpeed="0.00" departDelay="0.40" arrival="3506.00" arrivalLane="198107934_0" arrivalPos="395.36" arrivalSpeed="14.51" duration="184.00" routeLength="1301.53" waitingTime="60.00" waitingCount="3" stopTime="0.00" timeLoss="84.20" rerouteNo="0" devices="tripinfo_t1410" vType="DEFAULT_VEHTYPE" speedFactor="0.88" vaporized=""/>
    <tripinfo id="t1163" depart="3391.00" departLane="1349096472#1_0" departPos="5.10" departSpeed="0.00" departDelay="0.00" arrival="3507.00" arrivalLane="196795517_0" arrivalPos="498.37" arrivalSpeed="14.01" duration="116.00" routeLength="1571.37" waitingTime="0.00" waitingCount="0" stopTime="0.00" timeLoss="11.38" rerouteNo="0" devices="tripinfo_t1163" vType="DEFAULT_VEHTYPE" speedFactor="1.01" vaporized=""/>
    <tripinfo id="t6815" depart="3317.00" departLane="166789707#4_0" departPos="5.10" departSpeed="0.00" departDelay="0.90" arrival="3513.00" arrivalLane="1325528763#1_0" arrivalPos="41.03" arrivalSpeed="8.90" duration="196.00" routeLength="1143.88" waitingTime="74.00" waitingCount="3" stopTime="0.00" timeLoss="110.83" rerouteNo="0" devices="tripinfo_t6815" vType="DEFAULT_VEHTYPE" speedFactor="1.01" vaporized=""/>
    <tripinfo id="t19715" depart="3344.00" departLane="32105663#9_0" departPos="5.10" departSpeed="0.00" departDelay="2.40" arrival="3515.00" arrivalLane="-472484093_1" arrivalPos="91.63" arrivalSpeed="14.46" duration="171.00" routeLength="1908.62" waitingTime="20.00" waitingCount="1" stopTime="0.00" timeLoss="40.34" rerouteNo="0" devices="tripinfo_t19715" vType="DEFAULT_VEHTYPE" speedFactor="1.06" vaporized=""/>
    <tripinfo id="t6669" depart="3392.00" departLane="254577639#1_0" departPos="5.10" departSpeed="0.00" departDelay="0.90" arrival="3515.00" arrivalLane="1325528763#1_0" arrivalPos="41.03" arrivalSpeed="11.09" duration="123.00" routeLength="932.04" waitingTime="25.00" waitingCount="2" stopTime="0.00" timeLoss="58.70" rerouteNo="0" devices="tripinfo_t6669" vType="DEFAULT_VEHTYPE" speedFactor="1.10" vaporized=""/>
    <tripinfo id="t16745" depart="3364.00" departLane="46788423#4_0" departPos="5.10" departSpeed="0.00" departDelay="2.90" arrival="3517.00" arrivalLane="558320182#7_1" arrivalPos="18.41" arrivalSpeed="13.45" duration="153.00" routeLength="1452.03" waitingTime="0.00" waitingCount="0" stopTime="0.00" timeLoss="20.38" rerouteNo="0" devices="tripinfo_t16745" vType="DEFAULT_VEHTYPE" speedFactor="0.98" vaporized=""/>
    <tripinfo id="t12855" depart="3423.00" departLane="254287943#2_0" departPos="5.10" departSpeed="0.00" departDelay="0.40" arrival="3517.00" arrivalLane="222970218#0_0" arrivalPos="221.55" arrivalSpeed="20.49" duration="94.00" routeLength="1392.80" waitingTime="0.00" waitingCount="0" stopTime="0.00" timeLoss="8.36" rerouteNo="0" devices="tripinfo_t12855" vType="DEFAULT_VEHTYPE" speedFactor="0.95" vaporized=""/>
    <tripinfo id="t1305" depart="3339.00" departLane="1272736250#1_0" departPos="5.10" departSpeed="0.00" departDelay="5.60" arrival="3520.00" arrivalLane="198107934_1" arrivalPos="395.36" arrivalSpeed="18.78" duration="181.00" routeLength="1660.63" waitingTime="50.00" waitingCount="2" stopTime="0.00" timeLoss="74.35" rerouteNo="0" devices="tripinfo_t1305" vType="DEFAULT_VEHTYPE" speedFactor="1.18" vaporized=""/>
    <tripinfo id="t7221" depart="3350.00" departLane="468730823#1_0" departPos="5.10" departSpeed="0.00" departDelay="0.10" arrival="3520.00" arrivalLane="222970218#0_0" arrivalPos="221.55" arrivalSpeed="22.40" duration="170.00" routeLength="1748.10" waitingTime="45.00" waitingCount="2" stopTime="0.00" timeLoss="66.16" rerouteNo="0" devices="tripinfo_t7221" vType="DEFAULT_VEHTYPE" speedFactor="1.03" vaporized=""/>
    <tripinfo id="t10819" depart="3319.00" departLane="32000793#1_0" departPos="5.10" departSpeed="0.00" departDelay="0.30" arrival="3523.00" arrivalLane="209086947#8_3" arrivalPos="4.26" arrivalSpeed="13.80" duration="204.00" routeLength="968.07" waitingTime="101.00" waitingCount="4" stopTime="0.00" timeLoss="131.08" rerouteNo="0" devices="tripinfo_t10819" vType="DEFAULT_VEHTYPE" speedFactor="0.99" vaporized=""/>
    <tripinfo id="t15433" depart="3389.00" departLane="1325528763#1_0" departPos="5.10" departSpeed="0.00" departDelay="2.30" arrival="3525.00" arrivalLane="222970218#0_0" arrivalPos="221.55" arrivalSpeed="23.49" duration="136.00" routeLength="1615.37" waitingTime="16.00" waitingCount="1" stopTime="0.00" timeLoss="41.57" rerouteNo="0" devices="tripinfo_t15433" vType="DEFAULT_VEHTYPE" speedFactor="1.07" vaporized=""/>
    <tripinfo id="t8388" depart="3388.00" departLane="209086946#1_0" departPos="5.10" departSpeed="0.00" departDelay="0.60" arrival="3525.00" arrivalLane="1349096472#1_1" arrivalPos="165.26" arrivalSpeed="15.69" duration="137.00" routeLength="1214.72" waitingTime="49.00" waitingCount="3" stopTime="0.00" timeLoss="74.32" rerouteNo="0" devices="tripinfo_t8388" vType="DEFAULT_VEHTYPE" speedFactor="1.19" vaporized=""/>
    <tripinfo id="t14322" depart="3397.00" departLane="1325528763#1_0" departPos="5.10" departSpeed="0.00" departDelay="5.40" arrival="3526.00" arrivalLane="254287943#2_0" arrivalPos="100.51" arrivalSpeed="12.48" duration="129.00" routeLength="858.48" waitingTime="33.00" waitingCount="2" stopTime="0.00" timeLoss="58.95" rerouteNo="0" devices="tripinfo_t14322" vType="DEFAULT_VEHTYPE" speedFactor="0.92" vaporized=""/>
    <tripinfo id="t18492" depart="3394.00" departLane="558320180#10_0" departPos="5.10" departSpeed="0.00" departDelay="0.30" arrival="3528.00" arrivalLane="32105663#9_2" arrivalPos="107.76" arrivalSpeed="11.14" duration="134.00" routeLength="908.67" waitingTime="37.00" waitingCount="2" stopTime="0.00" timeLoss="55.65" rerouteNo="0" devices="tripinfo_t18492" vType="DEFAULT_VEHTYPE" speedFactor="0.88" vaporized=""/>
    <tripinfo id="t324" depart="3330.00" departLane="203406169#2_0" departPos="5.10" departSpeed="0.00" departDelay="0.60" arrival="3530.00" arrivalLane="1409499802#2_2" arrivalPos="44.20" arrivalSpeed="12.77" duration="200.00" routeLength="1142.39" waitingTime="80.00" waitingCount="4" stopTime="0.00" timeLoss="115.41" rerouteNo="0" devices="tripinfo_t324" vType="DEFAULT_VEHTYPE" speedFactor="1.01" vaporized=""/>
    <tripinfo id="t12085" depart="3370.00" departLane="200879002#4_0" departPos="5.10" departSpeed="0.00" departDelay="0.80" arrival="3531.00" arrivalLane="1325528763#1_0" arrivalPos="41.03" arrivalSpeed="5.28" duration="161.00" routeLength="990.12" waitingTime="58.00" waitingCount="3" stopTime="0.00" timeLoss="93.96" rerouteNo="0" devices="tripinfo_t12085" vType="DEFAULT_VEHTYPE" speedFactor="1.10" vaporized=""/>
    <tripinfo id="t1169" depart="3390.00" departLane="166187515#2_0" departPos="5.10" departSpeed="0.00" departDelay="1.90" arrival="3534.00" arrivalLane="209086946#1_3" arrivalPos="31.73" arrivalSpeed="13.20" duration="144.00" routeLength="497.77" waitingTime="80.00" waitingCount="3" stopTime="0.00" timeLoss="105.59" rerouteNo="0" devices="tripinfo_t1169" vType="DEFAULT_VEHTYPE" speedFactor="0.98" vaporized=""/>
    <tripinfo id="t12533" depart="3433.00" departLane="196550929#0_0" departPos="5.10" departSpeed="0.00" departDelay="0.50" arrival="3534.00" arrivalLane="222970218#0_0" arrivalPos="221.55" arrivalSpeed="21.82" duration="101.00" routeLength="1515.23" waitingTime="0.00" waitingCount="0" stopTime="0.00" timeLoss="9.41" rerouteNo="0" devices="tripinfo_t12533" vType="DEFAULT_VEHTYPE" speedFactor="1.00" vaporized=""/>
    <tripinfo id="t1516" depart="3369.00" departLane="32097429_0" departPos="5.10" departSpeed="0.00" departDelay="2.20" arrival="3538.00" arrivalLane="209086946#1_3" arrivalPos="31.73" arrivalSpeed="12.79" duration="169.00" routeLength="917.00" waitingTime="65.00" waitingCount="2" stopTime="0.00" timeLoss="97.62" rerouteNo="0" devices="tripinfo_t1516" vType="DEFAULT_VEHTYPE" speedFactor="0.95" vaporized=""/>
    <tripinfo id="t15073" depart="3402.00" departLane="1325528763#1_0" departPos="5.10" departSpeed="0.00" departDelay="5.60" arrival="3538.00" arrivalLane="222970218#0_0" arrivalPos="221.55" arrivalSpeed="22.10" duration="136.00" routeLength="1615.37" waitingTime="12.00" waitingCount="2" stopTime="0.00" timeLoss="39.27" rerouteNo="0" devices="tripinfo_t15073" vType="DEFAULT_VEHTYPE" speedFactor="1.04" vaporized=""/>
    <tripinfo id="t6502" depart="3334.00" departLane="1185630532#4_0" departPos="5.10" departSpeed="0.00" departDelay="0.10" arrival="3542.00" arrivalLane="254287943#2_0" arrivalPos="100.51" arrivalSpeed="11.95" duration="208.00" routeLength="867.15" waitingTime="103.00" waitingCount="6" stopTime="0.00" timeLoss="144.71" rerouteNo="0" devices="tripinfo_t6502" vType="DEFAULT_VEHTYPE" speedFactor="1.00" vaporized=""/>
    <tripinfo id="t14882" depart="3394.00" departLane="1325528763#1_0" departPos="5.10" departSpeed="0.00" departDelay="2.60" arrival="3543.00" arrivalLane="222970218#0_1" arrivalPos="221.55" arrivalSpeed="24.87" duration="149.00" routeLength="1589.27" waitingTime="27.00" waitingCount="1" stopTime="0.00" timeLoss="61.11" rerouteNo="0" devices="tripinfo_t14882" vType="DEFAULT_VEHTYPE" speedFactor="1.13" vaporized=""/>
    <tripinfo id="t12444" depart="3336.00" departLane="200879002#4_0" departPos="5.10" departSpeed="0.00" departDelay="0.50" arrival="3545.00" arrivalLane="1427294341#7_1" arrivalPos="38.19" arrivalSpeed="15.05" duration="209.00" routeLength="2593.77" waitingTime="17.00" waitingCount="1" stopTime="0.00" timeLoss="45.63" rerouteNo="0" devices="tripinfo_t12444" vType="DEFAULT_VEHTYPE" speedFactor="1.15" vaporized=""/>
    <tripinfo id="t1174" depart="3353.00" departLane="248402400#1_0" departPos="5.10" departSpeed="0.00" departDelay="4.40" arrival="3548.00" arrivalLane="209086946#1_3" arrivalPos="31.73" arrivalSpeed="11.59" duration="195.00" routeLength="1228.58" waitingTime="59.00" waitingCount="3" stopTime="0.00" timeLoss="105.49" rerouteNo="0" devices="tripinfo_t1174" vType="DEFAULT_VEHTYPE" speedFactor="0.93" vaporized=""/>
    <tripinfo id="t15099" depart="3405.00" departLane="1325528763#1_0" departPos="5.10" departSpeed="0.00" departDelay="7.00" arrival="3552.00" arrivalLane="222970218#0_1" arrivalPos="221.55" arrivalSpeed="21.11" duration="147.00" routeLength="1615.37" waitingTime="11.00" waitingCount="2" stopTime="0.00" timeLoss="40.52" rerouteNo="0" devices="tripinfo_t15099" vType="DEFAULT_VEHTYPE" speedFactor="0.96" vaporized=""/>
    <tripinfo id="t15451" depart="3386.00" departLane="1325528763#1_0" departPos="5.10" departSpeed="0.00" departDelay="0.40" arrival="3553.00" arrivalLane="222970218#0_0" arrivalPos="221.55" arrivalSpeed="18.22" duration="167.00" routeLength="1589.27" waitingTime="30.00" waitingCount="1" stopTime="0.00" timeLoss="50.04" rerouteNo="0" devices="tripinfo_t15451" vType="DEFAULT_VEHTYPE" speedFactor="0.85" vaporized=""/>
    <tripinfo id="t12723" depart="3399.00" departLane="198464181#1_0" departPos="5.10" departSpeed="0.00" departDelay="0.70" arrival="3553.00" arrivalLane="222970218#0_2" arrivalPos="221.55" arrivalSpeed="25.40" duration="154.00" routeLength="1869.09" waitingTime="23.00" waitingCount="2" stopTime="0.00" timeLoss="55.98" rerouteNo="0" devices="tripinfo_t12723" vType="DEFAULT_VEHTYPE" speedFactor="1.20" vaporized=""/>
    <tripinfo id="t15024" depart="3431.00" departLane="257636719-AddedOnRampEdge_0" departPos="5.10" departSpeed="0.00" departDelay="0.60" arrival="3553.00" arrivalLane="222970218#0_1" arrivalPos="221.55" arrivalSpeed="23.14" duration="122.00" routeLength="1691.23" waitingTime="0.00" waitingCount="0" stopTime="0.00" timeLoss="22.29" rerouteNo="0" devices="tripinfo_t15024" vType="DEFAULT_VEHTYPE" speedFactor="1.06" vaporized=""/>
    <tripinfo id="t1371" depart="3429.00" departLane="248402400#1_0" departPos="5.10" departSpeed="0.00" departDelay="25.70" arrival="3554.00" arrivalLane="196795517_0" arrivalPos="498.37" arrivalSpeed="13.23" duration="125.00" routeLength="1676.55" waitingTime="0.00" waitingCount="0" stopTime="0.00" timeLoss="14.47" rerouteNo="0" devices="tripinfo_t1371" vType="DEFAULT_VEHTYPE" speedFactor="1.02" vaporized=""/>
    <tripinfo id="t18747" depart="3343.00" departLane="1427294341#7_0" departPos="5.10" departSpeed="0.00" departDelay="0.30" arrival="3556.00" arrivalLane="202223186#24_0" arrivalPos="38.23" arrivalSpeed="15.74" duration="213.00" routeLength="1565.79" waitingTime="93.00" waitingCount="2" stopTime="0.00" timeLoss="113.85" rerouteNo="0" devices="tripinfo_t18747" vType="DEFAULT_VEHTYPE" speedFactor="1.14" vaporized=""/>
    <tripinfo id="t15141" depart="3400.00" departLane="257636719-AddedOnRampEdge_0" departPos="5.10" departSpeed="0.00" departDelay="0.50" arrival="3556.00" arrivalLane="222970218#0_0" arrivalPos="221.55" arrivalSpeed="19.26" duration="156.00" routeLength="1665.13" waitingTime="10.00" waitingCount="2" stopTime="0.00" timeLoss="37.91" rerouteNo="0" devices="tripinfo_t15141" vType="DEFAULT_VEHTYPE" speedFactor="0.89" vaporized=""/>
    <tripinfo id="t18433" depart="3374.00" departLane="558320180#10_0" departPos="5.10" departSpeed="0.00" departDelay="0.60" arrival="3557.00" arrivalLane="558320182#7_2" arrivalPos="18.41" arrivalSpeed="13.52" duration="183.00" routeLength="1193.92" waitingTime="78.00" waitingCount="2" stopTime="0.00" timeLoss="97.40" rerouteNo="0" devices="tripinfo_t18433" vType="DEFAULT_VEHTYPE" speedFactor="1.01" vaporized=""/>
    <tripinfo id="t49" depart="3372.00" departLane="32097429_0" departPos="5.10" departSpeed="0.00" departDelay="3.30" arrival="3558.00" arrivalLane="203404552#1_3" arrivalPos="116.44" arrivalSpeed="15.79" duration="186.00" routeLength="1393.66" waitingTime="64.00" waitingCount="2" stopTime="0.00" timeLoss="101.22" rerouteNo="0" devices="tripinfo_t49" vType="DEFAULT_VEHTYPE" speedFactor="1.19" vaporized=""/>
    <tripinfo id="t15500" depart="3413.00" departLane="1325528763#1_0" departPos="5.10" departSpeed="0.00" departDelay="13.40" arrival="3558.00" arrivalLane="222970218#0_1" arrivalPos="221.55" arrivalSpeed="21.02" duration="145.00" routeLength="1589.27" waitingTime="21.00" waitingCount="1" stopTime="0.00" timeLoss="43.31" rerouteNo="0" devices="tripinfo_t15500" vType="DEFAULT_VEHTYPE" speedFactor="0.98" vaporized=""/>